<VTKFile type="UnstructuredGrid" version="0.1" byte_order="BigEndian">
<UnstructuredGrid>
<Piece NumberOfPoints="63" NumberOfCells="192">
<Points>
<DataArray type="Float32" NumberOfComponents="3" Format="ascii">
-0.5 -0.5 -0.5 
-0.5 -0.25 -0.25 
-0.25 -0.5 -0.25 
-0.25 -0.25 -0.5 
-0.5 -0.5 0 
-0.5 -0.5 0.5 
-0.5 -0.25 0.25 
-0.25 -0.5 0.25 
-0.25 -0.25 0 
-0.25 -0.25 0.5 
-0.5 0 -0.5 
-0.5 0.5 -0.5 
-0.5 0.25 -0.25 
-0.25 0 -0.25 
-0.25 0.25 -0.5 
-0.25 0.5 -0.25 
-0.5 0 0 
-0.5 0 0.5 
-0.5 0.5 0 
-0.5 0.25 0.25 
-0.5 0.5 0.5 
-0.25 0 0.25 
-0.25 0.25 0 
-0.25 0.25 0.5 
-0.25 0.5 0.25 
0 -0.5 -0.5 
0 -0.25 -0.25 
0.5 -0.5 -0.5 
0.25 -0.5 -0.25 
0.25 -0.25 -0.5 
0.5 -0.25 -0.25 
0 -0.5 0 
0 -0.5 0.5 
0 -0.25 0.25 
0.5 -0.5 0 
0.25 -0.5 0.25 
0.5 -0.5 0.5 
0.25 -0.25 0 
0.25 -0.25 0.5 
0.5 -0.25 0.25 
0 0 -0.5 
0 0.5 -0.5 
0 0.25 -0.25 
0.5 0 -0.5 
0.25 0 -0.25 
0.25 0.25 -0.5 
0.5 0.5 -0.5 
0.25 0.5 -0.25 
0.5 0.25 -0.25 
0 0 0 
0 0 0.5 
0 0.5 0 
0 0.25 0.25 
0 0.5 0.5 
0.5 0 0 
0.25 0 0.25 
0.5 0 0.5 
0.25 0.25 0 
0.5 0.5 0 
0.25 0.25 0.5 
0.25 0.5 0.25 
0.5 0.25 0.25 
0.5 0.5 0.5 
</DataArray>
</Points>
<Cells>
<DataArray type="Int32" Name="connectivity" Format="ascii">
12 1 13 16
14 3 1 13
10 14 3 1
10 0 3 1
35 28 37 31
39 35 28 37
39 30 28 37
39 30 54 37
34 27 30 28
47 57 42 51
45 47 57 42
48 45 44 57
48 54 44 57
28 2 26 31
29 28 2 26
55 52 33 37
14 12 1 13
38 35 7 33
53 20 23 24
27 30 29 28
19 6 21 16
23 9 6 21
35 33 37 31
23 9 50 21
18 24 19 12
36 34 39 35
7 2 8 31
6 7 2 8
46 41 45 47
58 46 48 47
6 1 2 8
4 6 7 2
5 4 6 7
9 50 21 33
28 37 26 31
29 44 40 26
59 60 24 52
30 29 28 37
44 40 42 26
4 6 1 2
38 39 35 33
15 42 13 22
38 39 55 33
17 5 9 6
36 38 39 35
48 45 29 44
37 26 49 31
13 26 49 8
14 15 42 13
53 59 60 24
13 22 16 8
20 17 23 19
61 48 47 57
61 60 52 57
57 37 26 49
45 44 57 42
52 33 37 49
61 55 52 57
24 19 21 22
3 40 13 26
44 57 37 26
20 23 24 19
34 39 30 28
62 59 61 60
45 44 40 42
53 59 23 24
1 13 16 8
62 56 59 61
23 24 52 21
14 40 42 13
39 35 33 37
59 38 50 55
6 7 33 8
40 42 13 26
1 2 26 8
21 22 49 8
30 29 44 37
23 19 6 21
29 44 37 26
24 52 51 22
59 23 50 52
2 26 8 31
39 55 54 37
29 3 40 26
6 21 16 8
42 51 22 49
36 32 38 35
59 38 39 55
45 29 44 40
62 58 61 60
9 6 21 33
42 13 26 49
29 28 37 26
55 52 57 37
48 45 47 57
52 57 37 49
50 55 52 33
43 48 45 29
39 55 33 37
59 61 55 52
35 7 33 31
18 24 15 12
24 52 21 22
5 9 6 7
42 13 22 49
6 1 16 8
62 53 59 60
3 1 13 26
23 24 19 21
1 13 26 8
11 14 15 12
19 21 22 16
23 50 52 21
38 50 55 33
52 51 22 49
4 0 1 2
43 48 30 29
14 15 12 13
17 23 19 6
46 48 45 47
15 42 51 22
15 12 13 22
7 33 8 31
50 52 21 33
9 6 7 33
33 37 49 31
59 61 60 52
57 42 51 49
25 29 3 2
57 42 26 49
14 3 40 13
52 21 22 49
52 21 33 49
21 22 16 8
60 52 57 51
30 54 44 37
21 33 49 8
33 49 8 31
61 48 54 57
48 30 29 44
61 55 54 57
26 49 8 31
13 22 49 8
55 54 57 37
52 57 51 49
17 23 9 6
41 11 14 15
34 39 35 28
19 12 22 16
41 45 14 15
48 30 54 44
45 14 40 42
45 14 15 42
45 47 15 42
47 15 42 51
3 1 2 26
56 36 38 39
10 14 12 1
56 59 38 39
38 9 50 33
56 59 61 39
59 61 39 55
6 21 33 8
61 39 55 54
11 10 14 12
61 60 47 57
32 5 9 7
32 38 35 7
0 3 1 2
60 24 52 51
38 9 7 33
59 23 24 52
44 57 42 26
59 50 55 52
20 18 24 19
18 11 15 12
24 15 51 22
27 25 29 28
24 15 12 22
24 19 12 22
46 43 48 45
43 27 30 29
58 61 48 47
41 45 47 15
58 61 60 47
60 47 57 51
32 38 9 7
25 0 3 2
12 13 22 16
25 29 28 2
54 44 57 37
29 3 2 26
</DataArray>
<DataArray type="Int32" Name="offsets" Format="ascii">
4
8
12
16
20
24
28
32
36
40
44
48
52
56
60
64
68
72
76
80
84
88
92
96
100
104
108
112
116
120
124
128
132
136
140
144
148
152
156
160
164
168
172
176
180
184
188
192
196
200
204
208
212
216
220
224
228
232
236
240
244
248
252
256
260
264
268
272
276
280
284
288
292
296
300
304
308
312
316
320
324
328
332
336
340
344
348
352
356
360
364
368
372
376
380
384
388
392
396
400
404
408
412
416
420
424
428
432
436
440
444
448
452
456
460
464
468
472
476
480
484
488
492
496
500
504
508
512
516
520
524
528
532
536
540
544
548
552
556
560
564
568
572
576
580
584
588
592
596
600
604
608
612
616
620
624
628
632
636
640
644
648
652
656
660
664
668
672
676
680
684
688
692
696
700
704
708
712
716
720
724
728
732
736
740
744
748
752
756
760
764
768
</DataArray>
<DataArray type="Int32" Name="types" Format="ascii">
10
10
10
10
10
10
10
10
10
10
10
10
10
10
10
10
10
10
10
10
10
10
10
10
10
10
10
10
10
10
10
10
10
10
10
10
10
10
10
10
10
10
10
10
10
10
10
10
10
10
10
10
10
10
10
10
10
10
10
10
10
10
10
10
10
10
10
10
10
10
10
10
10
10
10
10
10
10
10
10
10
10
10
10
10
10
10
10
10
10
10
10
10
10
10
10
10
10
10
10
10
10
10
10
10
10
10
10
10
10
10
10
10
10
10
10
10
10
10
10
10
10
10
10
10
10
10
10
10
10
10
10
10
10
10
10
10
10
10
10
10
10
10
10
10
10
10
10
10
10
10
10
10
10
10
10
10
10
10
10
10
10
10
10
10
10
10
10
10
10
10
10
10
10
10
10
10
10
10
10
10
10
10
10
10
10
10
10
10
10
10
10
</DataArray>
</Cells>
<PointData Scalars="number">
<DataArray type="Float32" Name="number" Format="ascii">
0
1
2
3
4
5
6
7
8
9
10
11
12
13
14
15
16
17
18
19
20
21
22
23
24
25
26
27
28
29
30
31
32
33
34
35
36
37
38
39
40
41
42
43
44
45
46
47
48
49
50
51
52
53
54
55
56
57
58
59
60
61
62
</DataArray>
</PointData>
</Piece>
</UnstructuredGrid>
</VTKFile>
