<VTKFile type="UnstructuredGrid" version="0.1" byte_order="BigEndian">
<UnstructuredGrid>
<Piece NumberOfPoints="365" NumberOfCells="1536">
<Points>
<DataArray type="Float32" NumberOfComponents="3" Format="ascii">
-0.5 -0.5 -0.5 
-0.5 -0.375 -0.375 
-0.375 -0.5 -0.375 
-0.375 -0.375 -0.5 
-0.5 -0.5 -0.25 
-0.5 -0.375 -0.125 
-0.375 -0.5 -0.125 
-0.375 -0.375 -0.25 
-0.5 -0.25 -0.5 
-0.5 -0.125 -0.375 
-0.375 -0.25 -0.375 
-0.375 -0.125 -0.5 
-0.5 -0.25 -0.25 
-0.5 -0.125 -0.125 
-0.375 -0.25 -0.125 
-0.375 -0.125 -0.25 
-0.25 -0.5 -0.5 
-0.25 -0.375 -0.375 
-0.125 -0.5 -0.375 
-0.125 -0.375 -0.5 
-0.25 -0.5 -0.25 
-0.25 -0.375 -0.125 
-0.125 -0.5 -0.125 
-0.125 -0.375 -0.25 
-0.25 -0.25 -0.5 
-0.25 -0.125 -0.375 
-0.125 -0.25 -0.375 
-0.125 -0.125 -0.5 
-0.25 -0.25 -0.25 
-0.25 -0.125 -0.125 
-0.125 -0.25 -0.125 
-0.125 -0.125 -0.25 
-0.5 -0.5 0 
-0.5 -0.375 0.125 
-0.375 -0.5 0.125 
-0.375 -0.375 0 
-0.5 -0.5 0.25 
-0.5 -0.5 0.5 
-0.5 -0.375 0.375 
-0.375 -0.5 0.375 
-0.375 -0.375 0.25 
-0.375 -0.375 0.5 
-0.5 -0.25 0 
-0.5 -0.125 0.125 
-0.375 -0.25 0.125 
-0.375 -0.125 0 
-0.5 -0.25 0.25 
-0.5 -0.25 0.5 
-0.5 -0.125 0.375 
-0.375 -0.25 0.375 
-0.375 -0.125 0.25 
-0.375 -0.125 0.5 
-0.25 -0.5 0 
-0.25 -0.375 0.125 
-0.125 -0.5 0.125 
-0.125 -0.375 0 
-0.25 -0.5 0.25 
-0.25 -0.5 0.5 
-0.25 -0.375 0.375 
-0.125 -0.5 0.375 
-0.125 -0.375 0.25 
-0.125 -0.375 0.5 
-0.25 -0.25 0 
-0.25 -0.125 0.125 
-0.125 -0.25 0.125 
-0.125 -0.125 0 
-0.25 -0.25 0.25 
-0.25 -0.25 0.5 
-0.25 -0.125 0.375 
-0.125 -0.25 0.375 
-0.125 -0.125 0.25 
-0.125 -0.125 0.5 
-0.5 0 -0.5 
-0.5 0.125 -0.375 
-0.375 0 -0.375 
-0.375 0.125 -0.5 
-0.5 0 -0.25 
-0.5 0.125 -0.125 
-0.375 0 -0.125 
-0.375 0.125 -0.25 
-0.5 0.25 -0.5 
-0.5 0.5 -0.5 
-0.5 0.375 -0.375 
-0.375 0.25 -0.375 
-0.375 0.375 -0.5 
-0.375 0.5 -0.375 
-0.5 0.25 -0.25 
-0.5 0.5 -0.25 
-0.5 0.375 -0.125 
-0.375 0.25 -0.125 
-0.375 0.375 -0.25 
-0.375 0.5 -0.125 
-0.25 0 -0.5 
-0.25 0.125 -0.375 
-0.125 0 -0.375 
-0.125 0.125 -0.5 
-0.25 0 -0.25 
-0.25 0.125 -0.125 
-0.125 0 -0.125 
-0.125 0.125 -0.25 
-0.25 0.25 -0.5 
-0.25 0.5 -0.5 
-0.25 0.375 -0.375 
-0.125 0.25 -0.375 
-0.125 0.375 -0.5 
-0.125 0.5 -0.375 
-0.25 0.25 -0.25 
-0.25 0.5 -0.25 
-0.25 0.375 -0.125 
-0.125 0.25 -0.125 
-0.125 0.375 -0.25 
-0.125 0.5 -0.125 
-0.5 0 0 
-0.5 0.125 0.125 
-0.375 0 0.125 
-0.375 0.125 0 
-0.5 0 0.25 
-0.5 0 0.5 
-0.5 0.125 0.375 
-0.375 0 0.375 
-0.375 0.125 0.25 
-0.375 0.125 0.5 
-0.5 0.25 0 
-0.5 0.5 0 
-0.5 0.375 0.125 
-0.375 0.25 0.125 
-0.375 0.375 0 
-0.375 0.5 0.125 
-0.5 0.25 0.25 
-0.5 0.25 0.5 
-0.5 0.5 0.25 
-0.5 0.375 0.375 
-0.5 0.5 0.5 
-0.375 0.25 0.375 
-0.375 0.375 0.25 
-0.375 0.375 0.5 
-0.375 0.5 0.375 
-0.25 0 0 
-0.25 0.125 0.125 
-0.125 0 0.125 
-0.125 0.125 0 
-0.25 0 0.25 
-0.25 0 0.5 
-0.25 0.125 0.375 
-0.125 0 0.375 
-0.125 0.125 0.25 
-0.125 0.125 0.5 
-0.25 0.25 0 
-0.25 0.5 0 
-0.25 0.375 0.125 
-0.125 0.25 0.125 
-0.125 0.375 0 
-0.125 0.5 0.125 
-0.25 0.25 0.25 
-0.25 0.25 0.5 
-0.25 0.5 0.25 
-0.25 0.375 0.375 
-0.25 0.5 0.5 
-0.125 0.25 0.375 
-0.125 0.375 0.25 
-0.125 0.375 0.5 
-0.125 0.5 0.375 
0 -0.5 -0.5 
0 -0.375 -0.375 
0.125 -0.5 -0.375 
0.125 -0.375 -0.5 
0 -0.5 -0.25 
0 -0.375 -0.125 
0.125 -0.5 -0.125 
0.125 -0.375 -0.25 
0 -0.25 -0.5 
0 -0.125 -0.375 
0.125 -0.25 -0.375 
0.125 -0.125 -0.5 
0 -0.25 -0.25 
0 -0.125 -0.125 
0.125 -0.25 -0.125 
0.125 -0.125 -0.25 
0.25 -0.5 -0.5 
0.25 -0.375 -0.375 
0.5 -0.5 -0.5 
0.375 -0.5 -0.375 
0.375 -0.375 -0.5 
0.5 -0.375 -0.375 
0.25 -0.5 -0.25 
0.25 -0.375 -0.125 
0.5 -0.5 -0.25 
0.375 -0.5 -0.125 
0.375 -0.375 -0.25 
0.5 -0.375 -0.125 
0.25 -0.25 -0.5 
0.25 -0.125 -0.375 
0.5 -0.25 -0.5 
0.375 -0.25 -0.375 
0.375 -0.125 -0.5 
0.5 -0.125 -0.375 
0.25 -0.25 -0.25 
0.25 -0.125 -0.125 
0.5 -0.25 -0.25 
0.375 -0.25 -0.125 
0.375 -0.125 -0.25 
0.5 -0.125 -0.125 
0 -0.5 0 
0 -0.375 0.125 
0.125 -0.5 0.125 
0.125 -0.375 0 
0 -0.5 0.25 
0 -0.5 0.5 
0 -0.375 0.375 
0.125 -0.5 0.375 
0.125 -0.375 0.25 
0.125 -0.375 0.5 
0 -0.25 0 
0 -0.125 0.125 
0.125 -0.25 0.125 
0.125 -0.125 0 
0 -0.25 0.25 
0 -0.25 0.5 
0 -0.125 0.375 
0.125 -0.25 0.375 
0.125 -0.125 0.25 
0.125 -0.125 0.5 
0.25 -0.5 0 
0.25 -0.375 0.125 
0.5 -0.5 0 
0.375 -0.5 0.125 
0.375 -0.375 0 
0.5 -0.375 0.125 
0.25 -0.5 0.25 
0.25 -0.5 0.5 
0.25 -0.375 0.375 
0.5 -0.5 0.25 
0.375 -0.5 0.375 
0.5 -0.5 0.5 
0.375 -0.375 0.25 
0.375 -0.375 0.5 
0.5 -0.375 0.375 
0.25 -0.25 0 
0.25 -0.125 0.125 
0.5 -0.25 0 
0.375 -0.25 0.125 
0.375 -0.125 0 
0.5 -0.125 0.125 
0.25 -0.25 0.25 
0.25 -0.25 0.5 
0.25 -0.125 0.375 
0.5 -0.25 0.25 
0.375 -0.25 0.375 
0.5 -0.25 0.5 
0.375 -0.125 0.25 
0.375 -0.125 0.5 
0.5 -0.125 0.375 
0 0 -0.5 
0 0.125 -0.375 
0.125 0 -0.375 
0.125 0.125 -0.5 
0 0 -0.25 
0 0.125 -0.125 
0.125 0 -0.125 
0.125 0.125 -0.25 
0 0.25 -0.5 
0 0.5 -0.5 
0 0.375 -0.375 
0.125 0.25 -0.375 
0.125 0.375 -0.5 
0.125 0.5 -0.375 
0 0.25 -0.25 
0 0.5 -0.25 
0 0.375 -0.125 
0.125 0.25 -0.125 
0.125 0.375 -0.25 
0.125 0.5 -0.125 
0.25 0 -0.5 
0.25 0.125 -0.375 
0.5 0 -0.5 
0.375 0 -0.375 
0.375 0.125 -0.5 
0.5 0.125 -0.375 
0.25 0 -0.25 
0.25 0.125 -0.125 
0.5 0 -0.25 
0.375 0 -0.125 
0.375 0.125 -0.25 
0.5 0.125 -0.125 
0.25 0.25 -0.5 
0.25 0.5 -0.5 
0.25 0.375 -0.375 
0.5 0.25 -0.5 
0.375 0.25 -0.375 
0.375 0.375 -0.5 
0.5 0.5 -0.5 
0.375 0.5 -0.375 
0.5 0.375 -0.375 
0.25 0.25 -0.25 
0.25 0.5 -0.25 
0.25 0.375 -0.125 
0.5 0.25 -0.25 
0.375 0.25 -0.125 
0.375 0.375 -0.25 
0.5 0.5 -0.25 
0.375 0.5 -0.125 
0.5 0.375 -0.125 
0 0 0 
0 0.125 0.125 
0.125 0 0.125 
0.125 0.125 0 
0 0 0.25 
0 0 0.5 
0 0.125 0.375 
0.125 0 0.375 
0.125 0.125 0.25 
0.125 0.125 0.5 
0 0.25 0 
0 0.5 0 
0 0.375 0.125 
0.125 0.25 0.125 
0.125 0.375 0 
0.125 0.5 0.125 
0 0.25 0.25 
0 0.25 0.5 
0 0.5 0.25 
0 0.375 0.375 
0 0.5 0.5 
0.125 0.25 0.375 
0.125 0.375 0.25 
0.125 0.375 0.5 
0.125 0.5 0.375 
0.25 0 0 
0.25 0.125 0.125 
0.5 0 0 
0.375 0 0.125 
0.375 0.125 0 
0.5 0.125 0.125 
0.25 0 0.25 
0.25 0 0.5 
0.25 0.125 0.375 
0.5 0 0.25 
0.375 0 0.375 
0.5 0 0.5 
0.375 0.125 0.25 
0.375 0.125 0.5 
0.5 0.125 0.375 
0.25 0.25 0 
0.25 0.5 0 
0.25 0.375 0.125 
0.5 0.25 0 
0.375 0.25 0.125 
0.375 0.375 0 
0.5 0.5 0 
0.375 0.5 0.125 
0.5 0.375 0.125 
0.25 0.25 0.25 
0.25 0.25 0.5 
0.25 0.5 0.25 
0.25 0.375 0.375 
0.25 0.5 0.5 
0.5 0.25 0.25 
0.375 0.25 0.375 
0.5 0.25 0.5 
0.375 0.375 0.25 
0.5 0.5 0.25 
0.375 0.375 0.5 
0.375 0.5 0.375 
0.5 0.375 0.375 
0.5 0.5 0.5 
</DataArray>
</Points>
<Cells>
<DataArray type="Int32" Name="connectivity" Format="ascii">
77 13 78 112
79 77 13 78
79 15 96 78
76 79 77 13
76 79 15 13
76 12 15 13
86 76 79 77
93 79 15 96
74 93 79 15
100 83 74 93
74 93 25 15
74 10 25 15
74 10 12 15
93 25 94 96
95 93 25 94
95 27 252 94
92 95 93 25
92 95 27 25
92 24 27 25
100 92 95 93
73 83 74 76
73 83 86 76
75 73 83 74
72 75 73 9
9 74 10 12
11 9 74 10
11 92 74 10
11 92 24 10
83 74 76 79
308 318 145 306
176 215 175 167
104 105 85 102
126 122 86 89
258 305 215 175
242 330 329 241
333 310 328 238
226 240 223 185
258 176 215 175
327 258 305 215
258 256 174 175
144 145 306 70
305 257 312 302
316 268 257 312
7 28 14 21
269 316 305 257
324 159 318 314
161 136 156 155
269 316 268 257
269 266 268 257
132 135 136 131
41 38 49 58
259 269 258 256
176 215 205 167
215 205 167 212
306 70 139 213
124 88 126 122
279 259 269 258
232 230 234 228
359 353 324 344
254 259 177 171
331 279 197 327
281 331 279 197
320 155 159 152
323 324 159 318
354 321 320 324
352 354 321 323
277 195 280 275
177 258 176 174
321 323 158 159
75 100 83 74
319 321 323 158
350 349 359 347
191 278 254 177
323 158 308 318
170 163 172 26
311 323 158 308
247 245 219 243
293 263 270 269
319 311 323 158
319 154 146 158
352 319 311 323
84 100 102 83
285 289 264 265
326 354 353 320
199 196 197 237
325 326 161 321
325 326 354 321
262 263 270 110
325 352 354 321
352 319 321 323
224 227 225 187
160 161 321 156
154 142 146 143
234 228 210 223
314 150 303 312
155 159 153 149
325 352 319 321
190 179 163 172
322 325 160 161
311 146 307 308
160 161 136 156
160 135 154 156
334 337 247 245
357 356 336 339
329 281 331 241
355 361 325 326
23 21 30 167
364 355 361 362
264 265 105 262
120 50 141 114
156 158 143 153
323 158 159 318
116 120 50 43
116 46 50 43
119 116 120 50
119 116 46 50
143 68 50 141
361 363 341 357
142 119 49 68
142 67 49 68
193 190 179 196
146 143 68 144
146 71 307 144
249 333 220 238
142 146 71 68
262 267 107 110
301 345 296 298
150 151 312 140
121 118 133 119
118 48 119 116
121 154 133 119
117 121 118 48
273 255 263 259
52 20 21 22
282 200 281 278
51 41 38 49
79 96 97 78
264 265 286 262
113 43 114 112
196 197 177 176
233 231 236 232
47 51 48 38
75 73 9 74
210 204 54 203
54 22 55 202
52 53 21 22
317 152 314 313
310 220 238 304
35 44 53 21
43 13 112 45
254 259 253 171
35 44 14 21
217 208 219 69
35 7 20 21
249 243 220 238
42 12 13 14
159 152 314 150
337 247 245 249
110 111 268 109
43 13 14 45
70 139 213 64
214 213 215 205
53 54 22 55
42 43 44 14
100 95 103 93
327 258 176 215
9 1 10 12
42 43 13 14
288 298 297 293
177 258 256 174
39 34 40 56
34 6 35 52
34 40 35 52
327 237 176 215
33 34 40 35
10 12 15 28
308 144 218 306
50 43 114 63
269 266 256 257
284 286 262 263
44 14 21 62
242 201 329 241
6 35 7 20
153 120 125 138
363 341 357 356
279 197 177 258
33 5 42 35
259 253 171 256
129 135 121 118
33 46 42 35
191 196 197 177
48 119 49 46
4 5 1 2
23 174 30 167
47 51 41 38
38 39 34 40
154 133 119 143
38 33 46 40
135 121 154 133
175 30 65 212
36 32 33 34
246 234 226 240
66 70 63 64
184 185 169 168
319 311 146 158
121 154 142 119
9 74 76 12
244 247 230 219
262 102 107 110
172 169 176 174
229 235 232 209
95 252 253 94
196 185 169 176
260 262 263 103
288 282 273 293
154 142 119 143
5 6 2 7
341 357 356 336
339 249 333 330
82 73 83 86
179 184 185 169
106 79 96 97
357 354 323 351
196 172 177 176
322 157 160 161
288 275 272 273
191 196 172 177
35 52 53 21
114 115 137 45
173 172 177 171
359 347 346 344
191 173 172 177
139 213 302 65
130 136 131 124
277 276 288 275
53 21 22 55
340 352 334 337
63 137 45 62
188 179 196 185
193 188 199 196
[...]
<PointData Scalars="u value">
<DataArray type="Float32" Name="u value" Format="ascii">
0
0
0
0
0
0
0
0
0
0
0
0
0
0
0
0
0
0
0
0
0
0
0
0
0
0
0
0
0
0
0
0
0
0
0
0
0
0
0
0
0
0
0
0
0
0
0
0
0
0
0
0
0
0
0
0
0
0
0
0
0
0
0
0
0
0
0
0
0
0
0
0
0
0
0
0
0
0
0
0
0
0
0
0
0
0
0
0
0
0
0
0
0
0
0
0
0
0
0
0
0
0
0
0
0
0
0
0
0
0
0
0
0
0
0
0
0
0
0
0
0
0
0
0
0
0
0
0
0
0
0
0
0
0
0
0
0
0
0
0
0
0
0
0
0
0
0
0
0
0
0
0
0
0
0
0
0
0
0
0
0
0
0
0
0
0
0
0
0
0
0
0
0
0
0
0
0
0
0
0
0
0
0
0
0
0
0
0
0
0
0
0
0
0
0
0
0
0
0
0
0
0
0
0
0
0
0
0
0
0
0
0
0
0
0
0
0
0
0
0
0
0
0
0
0
0
0
0
0
0
0
0
0
0
0
0
0
0
0
0
0
0
0
0
0
0
0
0
0
0
0
0
0
0
0
0
0
0
0
0
0
0
0
0
0
0
0
0
0
0
0
0
0
0
0
0
0
0
0
0
0
0
0
0
0
0
0
0
0
0
0
0
0
0
0
0
0
0
0
0
0
0
0
0
0
0
0
0
0
0
0
0
0
0
0
0
0
0
0
0
0
0
0
0
0
0
0
0
0
0
0
0
0
0
0
0
0
0
0
0
0
0
0
0
0
0
0
0
0
0
0
0
0
0
0
0
0
0
0
0
0
0
0
0
0
</DataArray>
</PointData>
</Piece>
</UnstructuredGrid>
</VTKFile>
