<VTKFile type="PolyData" version="0.1" byte_order="LittleEndian">
<PolyData>
<Piece NumberOfPoints="237">
<Points>
<DataArray type="Float32" Name="Points" NumberOfComponents="3">
0.00121516 0.00734612 0 
-0.176817 -0.0342585 0 
-0.129525 -0.130715 0 
0.0320508 -0.186392 0 
0.140065 -0.131563 0 
0.176321 0.0660145 0 
0.0956267 0.181369 0 
-0.0248426 0.174963 0 
-0.174987 0.0632952 0 
-0.345897 0.147211 0 
-0.349674 -0.0153207 0 
-0.000241835 -0.153614 0 
-0.17284 0.201643 0 
-0.273731 0.202972 0 
-0.354276 -0.111328 0 
-0.212115 -0.269267 0 
-0.267398 -0.0181879 0 
-0.0143473 -0.268381 0 
0.0163007 -0.347463 0 
0.100667 -0.360699 0 
0.284297 -0.196312 0 
0.0935478 0.110132 0 
-0.129363 -0.0310736 0 
0.190271 0.181561 0 
0.263417 0.230289 0 
0.200759 0.316852 0 
0.0224263 0.345155 0 
0.205878 -0.184291 0 
0.348146 -0.138942 0 
0.34689 -0.0312324 0 
-0.0321372 0.240684 0 
-0.187851 -0.224229 0 
0.26958 -0.082981 0 
0.0790351 -0.0793559 0 
-0.211604 0.336101 0 
0.157259 0.446561 0 
0.336255 0.273284 0 
0.44996 0.255161 0 
0.405213 0.346172 0 
-0.0397772 -0.427661 0 
-0.152933 -0.492306 0 
-0.0584802 -0.528855 0 
-0.150163 0.325898 0 
0.227742 -0.42079 0 
0.104792 0.344216 0 
0.240807 0.133005 0 
0.419058 -0.010307 0 
0.489616 -0.139818 0 
0.527254 -0.0605984 0 
-0.378504 0.216487 0 
-0.351289 -0.269504 0 
0.0789527 -0.347198 0 
0.0760427 0.267096 0 
-0.332008 0.419715 0 
-0.453638 0.166566 0 
-0.272611 0.0974759 0 
-0.492861 0.145269 0 
-0.530721 0.0479443 0 
-0.121926 -0.341843 0 
0.29653 0.133073 0 
0.280858 -0.424304 0 
0.346558 -0.408324 0 
-0.0302963 0.103307 0 
0.0524334 0.528018 0 
-0.18406 0.450205 0 
0.128701 0.483942 0 
-0.412879 -0.277016 0 
-0.411497 -0.336269 0 
-0.127831 0.185546 0 
0.0408239 0.0244387 0 
-0.39162 -0.374399 0 
-0.0516633 0.000966558 0 
0.0437053 0.403621 0 
-0.172408 0.525079 0 
-0.141701 -0.288922 0 
-0.0729768 -0.088797 0 
0.44499 0.0450014 0 
-0.0530856 0.328577 0 
0.17638 -0.332123 0 
-0.121233 0.438635 0 
-0.235657 -0.149509 0 
-0.405189 0.210346 0 
-0.476983 -0.00266481 0 
0.00142394 -0.463455 0 
0.208433 -0.117932 0 
0.212702 0.380315 0 
0.0306134 -0.522029 0 
-0.522538 -0.024729 0 
-0.310927 -0.337006 0 
0.434165 -0.280011 0 
-0.205619 -0.37698 0 
0.123419 -0.00624522 0 
0.170751 -0.38777 0 
0.143159 -0.197885 0 
0.468538 0.179818 0 
0.404482 0.130596 0 
-0.35252 0.0220718 0 
0.393614 -0.200311 0 
-0.601545 0.0661467 0 
-0.63334 -0.025328 0 
-0.145329 -0.621983 0 
-0.0465742 -0.6619 0 
0.422392 0.149909 0 
-0.401346 -0.139745 0 
-0.0875663 0.409479 0 
-0.256989 0.393284 0 
0.0308399 -0.549082 0 
-0.203643 0.522072 0 
0.195383 0.112732 0 
0.46931 -0.383088 0 
-0.215664 -0.103918 0 
0.508225 0.42359 0 
0.547376 0.32269 0 
0.616739 0.0381571 0 
0.626441 0.0943171 0 
0.700792 0.120404 0 
0.157065 -0.59866 0 
-0.333819 0.540611 0 
-0.431263 0.510472 0 
0.147616 0.622946 0 
0.0637721 0.671658 0 
0.597691 -0.0953046 0 
-0.382668 -0.412394 0 
0.323626 0.53011 0 
-0.29146 0.399534 0 
-0.405537 0.311054 0 
-0.500696 0.486278 0 
-0.587699 0.336868 0 
-0.409925 -0.185434 0 
-0.344055 -0.541329 0 
-0.62156 -0.144374 0 
-0.536984 0.336117 0 
0.356373 -0.515232 0 
0.326512 0.583366 0 
-0.0175016 0.584829 0 
0.664276 0.180027 0 
0.542424 -0.304622 0 
-0.43712 0.0474065 0 
-0.585763 -0.120837 0 
0.392311 -0.58729 0 
0.548578 0.00696438 0 
0.200178 -0.655154 0 
-0.663678 0.275532 0 
-0.443162 -0.42431 0 
-0.354764 -0.593962 0 
-0.457495 0.351632 0 
-0.159414 -0.407889 0 
0.350065 0.462491 0 
0.261909 0.0290608 0 
0.452974 0.372991 0 
-0.533743 -0.117249 0 
0.0536744 -0.581753 0 
0.215702 0.534616 0 
-0.223146 -0.568489 0 
-0.648434 -0.215506 0 
-0.653929 -0.322916 0 
-0.195335 0.623078 0 
-0.353015 -0.467731 0 
-0.373858 0.442419 0 
-0.282743 0.286146 0 
0.567273 -0.210023 0 
0.30704 -0.340882 0 
-0.186843 -0.683787 0 
0.423587 -0.160314 0 
0.306064 0.381132 0 
0.39521 -0.484914 0 
-0.262672 -0.220924 0 
0.530362 -0.447901 0 
0.014527 0.719277 0 
-0.065417 0.62629 0 
0.371823 -0.417782 0 
-0.489428 -0.220912 0 
-0.245681 0.636805 0 
0.344326 -0.31836 0 
0.0486078 -0.63232 0 
0.671368 -0.250027 0 
0.704314 -0.178288 0 
-0.0894822 -0.244563 0 
-0.63084 0.194863 0 
-0.265579 -0.467515 0 
0.279313 0.417873 0 
0.669229 0.216632 0 
0.238847 -0.652017 0 
-0.53759 0.248799 0 
-0.00905749 -0.769375 0 
0.118419 -0.797081 0 
0.592905 0.451966 0 
0.515861 0.563659 0 
0.694865 -0.0936732 0 
-0.678682 0.186746 0 
-0.787645 0.14406 0 
-0.81682 0.00934394 0 
0.491577 0.641769 0 
-0.780787 -0.0839945 0 
0.471372 -0.563842 0 
-0.538406 0.563752 0 
-0.652255 0.498095 0 
0.117963 -0.547541 0 
-0.777305 0.0936437 0 
-0.574307 -0.248495 0 
-0.607496 -0.403498 0 
-0.534606 -0.520903 0 
-0.572119 0.504957 0 
0.332637 0.693125 0 
-0.317547 0.748333 0 
-0.443626 0.67789 0 
-0.377949 -0.699396 0 
0.651347 0.53741 0 
0.669065 0.295033 0 
0.576123 0.218481 0 
0.288834 0.62005 0 
-0.749934 -0.141693 0 
0.345429 -0.720773 0 
0.670974 -0.451467 0 
-0.0498358 0.815702 0 
-0.184718 0.748839 0 
0.77272 -0.0482559 0 
-0.538808 -0.29497 0 
0.0672099 -0.294328 0 
0.563542 -0.423431 0 
0.804756 0.0262862 0 
0.244867 -0.568338 0 
0.646134 -0.38421 0 
-0.729849 0.0167587 0 
0.104991 -0.439427 0 
-0.303204 0.65076 0 
0.218118 0.717398 0 
-0.148431 -0.807432 0 
-0.489415 -0.598583 0 
-0.719251 0.473141 0 
-0.7716 0.338622 0 
-0.131943 0.0824541 0 
-0.479055 -0.673203 0 
0.734863 0.324019 0 
0.146218 0.810507 0 
-0.0639307 0.490971 0 
-0.680626 0.144054 0 
</DataArray>
</Points>
<PointData>
<DataArray type="Float32" Name="G" NumberOfComponents="3">
0 0 1.7173 
0 0 0.193857 
0 0 0.28596 
0 0 0.176259 
0 0 0.240936 
0 0 0.225802 
0 0 0.196481 
0 0 0.212773 
0 0 0.249299 
0 0 0.0212577 
0 0 0.0274673 
0 0 0.0999021 
0 0 0.0631543 
0 0 0.0348583 
0 0 0.0246762 
0 0 0.0138562 
0 0 0.0444014 
0 0 0.043975 
0 0 0.0345276 
0 0 0.00358356 
0 0 0.0350799 
0 0 0.18448 
0 0 0.144462 
0 0 0.0559897 
0 0 0.0314527 
0 0 0.0259989 
0 0 0.0402485 
0 0 0.0586704 
0 0 0.0167347 
0 0 0.0452139 
0 0 0.0553452 
0 0 0.0366403 
0 0 0.0454554 
0 0 0.169148 
0 0 0.0132894 
0 0 0.00722671 
0 0 0.00748017 
0 0 0.0021255 
0 0 0.00474552 
0 0 0.00511034 
0 0 0.00183383 
0 0 0.00116116 
0 0 0.0190859 
0 0 0.00510839 
0 0 0.0179277 
0 0 0.0305782 
0 0 0.00753427 
0 0 0.00500384 
0 0 0.00107705 
0 0 0.00567549 
0 0 0.00731586 
0 0 0.0156526 
0 0 0.0297695 
0 0 0.00253258 
0 0 0.00490549 
0 0 0.037215 
0 0 0.00212928 
0 0 0.00190854 
0 0 0.0124574 
0 0 0.0278034 
0 0 0.00326071 
0 0 0.0012047 
0 0 0.153955 
0 0 0.00401234 
0 0 0.00369686 
0 0 0.00334907 
0 0 0.00184862 
0 0 0.000838165 
0 0 0.0552137 
0 0 0.0769731 
0 0 0.000729205 
0 0 0.0627772 
0 0 0.00700798 
0 0 0.00106338 
0 0 0.0172673 
0 0 0.0941103 
0 0 0.00807741 
0 0 0.0229064 
0 0 0.0217396 
0 0 0.00356019 
0 0 0.0640136 
0 0 0.00210222 
0 0 0.00568112 
0 0 0.0041774 
0 0 0.058113 
0 0 0.00425707 
0 0 0.00284853 
0 0 0.00162149 
0 0 0.00691476 
0 0 0.00390077 
0 0 0.00426415 
0 0 0.0703011 
0 0 0.0036438 
0 0 0.0664961 
0 0 0.00355633 
0 0 0.00578529 
0 0 0.0114528 
0 0 0.00349394 
0 0 0.000628495 
0 0 0.00104581 
0 0 0.000564148 
0 0 0.000489723 
0 0 0.00229637 
0 0 0.00963592 
0 0 0.00439187 
0 0 0.00292637 
0 0 0.000474372 
0 0 0.000486105 
0 0 0.0488617 
0 0 0.000634296 
0 0 0.0355164 
0 0 0.000758611 
0 0 0.000508197 
0 0 0.000550241 
0 0 0.000709345 
0 0 0.000221906 
0 0 0.000616247 
0 0 0.000705472 
0 0 0.000531444 
0 0 0.000496725 
0 0 0.000448197 
0 0 0.000363819 
0 0 0.000882752 
0 0 0.00126963 
0 0 0.0015694 
0 0 0.00313617 
0 0 6.01209e-05 
0 0 0.000521319 
0 0 0.00458298 
0 0 0.000490683 
0 0 0.00030883 
0 0 0.000561425 
0 0 0.000480609 
0 0 0.000230121 
0 0 0.000896518 
0 0 0.000362706 
0 0 0.000660088 
0 0 0.00295408 
0 0 0.00110755 
0 0 0.000279814 
0 0 0.00194714 
0 0 0.000435105 
0 0 0.000317922 
0 0 0.000193846 
0 0 5.19168e-05 
0 0 0.000626676 
0 0 0.00660027 
0 0 0.00167167 
0 0 0.0215591 
0 0 0.000164981 
0 0 0.000666049 
0 0 0.0012058 
0 0 0.000585452 
0 0 0.000724857 
0 0 0.00013131 
0 0 9.05975e-05 
0 0 0.000489136 
0 0 0.000519775 
0 0 0.000223915 
0 0 0.00550259 
0 0 0.000439027 
0 0 0.00375822 
0 0 7.63185e-05 
0 0 0.00150454 
0 0 0.00127254 
0 0 0.000294615 
0 0 0.00954294 
0 0 0.000264052 
0 0 0.000125511 
0 0 0.000482549 
0 0 0.000539783 
0 0 0.000471973 
0 0 0.000187346 
0 0 0.00337249 
0 0 9.32234e-05 
0 0 5.51466e-05 
0 0 0.000167777 
0 0 0.0592781 
0 0 0.000349202 
0 0 0.000841638 
0 0 0.000596637 
0 0 0.000134953 
0 0 0.000103541 
0 0 7.12083e-05 
0 0 1.1403e-05 
0 0 5.91685e-05 
0 0 9.93844e-06 
0 0 0.000110119 
0 0 0.000129234 
0 0 0.000123124 
0 0 2.21998e-05 
0 0 2.15253e-05 
0 0 7.78748e-05 
0 0 2.39718e-05 
0 0 0.000100529 
0 0 2.76058e-05 
0 0 1.82289e-05 
0 0 0.000679167 
0 0 1.70574e-05 
0 0 0.00044939 
0 0 0.000105397 
0 0 3.93119e-05 
0 0 8.38776e-06 
0 0 8.78038e-06 
0 0 2.63239e-05 
0 0 1.4393e-05 
0 0 2.663e-05 
0 0 1.08614e-05 
0 0 2.06296e-05 
0 0 0.000272488 
0 0 5.02231e-05 
0 0 6.78621e-05 
0 0 2.27403e-06 
0 0 1.13008e-05 
0 0 3.83783e-06 
0 0 1.37947e-05 
0 0 1.70596e-05 
0 0 0.000361704 
0 0 0.0146054 
0 0 3.91269e-05 
0 0 1.52385e-05 
0 0 0.000141134 
0 0 5.20828e-06 
0 0 3.28684e-05 
0 0 0.000750407 
0 0 6.26517e-06 
0 0 5.24162e-06 
0 0 6.5542e-06 
0 0 9.51223e-06 
0 0 1.106e-06 
0 0 4.48782e-06 
0 0 0.00454466 
0 0 6.53107e-07 
0 0 7.92179e-07 
0 0 9.97689e-07 
0 0 1.12067e-05 
0 0 6.76441e-07 
</DataArray>
<DataArray type="Float32" Name="u" NumberOfComponents="3">
-0.0404609 0.00843401 0 
0.170625 -0.893733 0 
0.660225 -0.649574 0 
0.938567 0.165247 0 
0.661569 0.703886 0 
-0.328565 0.887004 0 
-0.894938 0.469939 0 
-0.892 -0.129157 0 
-0.32395 -0.88116 0 
-0.570589 -1.32277 0 
0.0558322 -1.40024 0 
0.799824 0.00316446 0 
-0.928182 -0.793175 0 
-0.832899 -1.11498 0 
0.426848 -1.3655 0 
1.09501 -0.856034 0 
0.0780868 -1.21791 0 
1.22513 -0.0605494 0 
1.39942 0.0695065 0 
1.3847 0.388553 0 
0.794587 1.14847 0 
-0.574896 0.488835 0 
0.161901 -0.680269 0 
-0.831466 0.872892 0 
-0.920337 1.05529 0 
-1.21338 0.766639 0 
-1.39439 0.0847203 0 
0.83293 0.929463 0 
0.534847 1.33451 0 
0.129136 1.39466 0 
-1.1382 -0.155958 0 
0.988491 -0.821891 0 
0.374203 1.20589 0 
0.427469 0.426183 0 
-1.23926 -0.780882 0 
-1.41002 0.491804 0 
-0.933986 1.15261 0 
-0.729943 1.29378 0 
-0.959027 1.12539 0 
1.47843 -0.133427 0 
1.42184 -0.43707 0 
1.47145 -0.159531 0 
-1.289 -0.596582 0 
1.31359 0.711033 0 
-1.35634 0.407897 0 
-0.596937 1.08747 0 
0.0397385 1.477 0 
0.410159 1.43034 0 
0.171107 1.46969 0 
-0.744313 -1.28894 0 
0.908116 -1.17897 0 
1.37795 0.315934 0 
-1.20194 0.337829 0 
-1.16045 -0.916731 0 
-0.521641 -1.40082 0 
-0.437845 -1.20472 0 
-0.427011 -1.42517 0 
-0.138932 -1.47295 0 
1.34181 -0.472461 0 
-0.552282 1.24018 0 
1.2409 0.821031 0 
1.12609 0.955049 0 
-0.55652 -0.163561 0 
-1.47351 0.140511 0 
-1.38289 -0.568807 0 
-1.44179 0.378173 0 
0.83299 -1.2378 0 
0.939234 -1.1446 0 
-0.899555 -0.619019 0 
-0.133678 0.226261 0 
1.02218 -1.06396 0 
-0.00625973 -0.28253 0 
-1.46053 0.152006 0 
-1.39392 -0.461667 0 
1.21689 -0.590241 0 
0.474894 -0.386209 0 
-0.14623 1.48289 0 
-1.35807 -0.224592 0 
1.27116 0.675881 0 
-1.43892 -0.402518 0 
0.670679 -1.05437 0 
-0.694092 -1.32315 0 
0.00277086 -1.49406 0 
1.49435 0.00765177 0 
0.561886 0.989375 0 
-1.29688 0.722418 0 
1.48125 0.0889833 0 
0.0653405 -1.4824 0 
1.10026 -1.00904 0 
0.805586 1.24753 0 
1.30524 -0.705586 0 
0.0360518 0.657593 0 
1.35475 0.597379 0 
0.934368 0.67681 0 
-0.530506 1.39279 0 
-0.450904 1.41004 0 
-0.094377 -1.40391 0 
0.676115 1.32553 0 
-0.161183 -1.41873 0 
0.0521672 -1.39987 0 
1.35922 -0.31467 0 
1.36513 -0.0942371 0 
-0.494531 1.4055 0 
0.485007 -1.39776 0 
-1.44568 -0.31448 0 
-1.25251 -0.818893 0 
1.4673 0.0843198 0 
-1.36208 -0.534649 0 
-0.54031 0.942117 0 
0.901754 1.10379 0 
0.490862 -1.01884 0 
-0.876809 1.05443 0 
-0.708037 1.2061 0 
-0.0850442 1.41249 0 
-0.205902 1.38469 0 
-0.22055 1.29607 0 
1.36731 0.359135 0 
-1.1886 -0.734679 0 
-1.0412 -0.878196 0 
-1.35691 0.317172 0 
-1.35062 0.123762 0 
0.226114 1.40839 0 
1.07481 -0.992042 0 
-1.20659 0.734799 0 
-1.20736 -0.880252 0 
-0.909907 -1.17906 0 
-0.926997 -0.951609 0 
-0.676155 -1.1714 0 
0.613952 -1.3577 0 
1.17792 -0.74426 0 
0.314138 -1.36119 0 
-0.746227 -1.18409 0 
1.15652 0.799318 0 
-1.19096 0.664568 0 
-1.44364 -0.0485937 0 
-0.348444 1.29509 0 
0.691022 1.2292 0 
-0.167058 -1.47836 0 
0.287394 -1.40559 0 
1.09728 0.732392 0 
-0.0160369 1.46998 0 
1.28506 0.392704 0 
-0.504386 -1.20421 0 
0.985147 -1.0243 0 
1.15047 -0.683395 0 
-0.887347 -1.14802 0 
1.38778 -0.536607 0 
-1.15527 0.873789 0 
-0.129276 1.20302 0 
-0.915966 1.11529 0 
0.313252 -1.43859 0 
1.43873 0.134174 0 
-1.34709 0.539719 0 
1.326 -0.516497 0 
0.424554 -1.28004 0 
0.574111 -1.16152 0 
-1.31496 -0.415631 0 
1.15591 -0.867267 0 
-1.10775 -0.934347 0 
-1.04695 -1.03044 0 
0.496102 1.33736 0 
1.10911 0.99832 0 
1.27165 -0.344976 0 
0.529435 1.39413 0 
-1.16359 0.934051 0 
1.09077 0.888271 0 
0.89699 -1.06134 0 
0.860526 1.01819 0 
-1.3046 0.022297 0 
-1.39549 -0.150531 0 
1.09277 0.971795 0 
0.607868 -1.3468 0 
-1.25516 -0.48687 0 
1.01421 1.09592 0 
1.39478 0.108427 0 
0.456915 1.22521 0 
0.318755 1.25607 0 
1.12962 -0.407124 0 
-0.409688 -1.30961 0 
1.28719 -0.725788 0 
-1.23918 0.82663 0 
-0.405421 1.26028 0 
1.25174 0.458418 0 
-0.609152 -1.30321 0 
1.24521 -0.0136649 0 
1.18893 0.176985 0 
-0.771944 1.01511 0 
-0.924475 0.846555 0 
0.178248 1.31355 0 
-0.355268 -1.27464 0 
-0.220693 -1.18905 0 
-0.0160617 -1.19105 0 
-0.953798 0.730245 0 
0.129415 -1.22191 0 
0.98678 0.824293 0 
-0.89186 -0.84993 0 
-0.720247 -0.939639 0 
1.42973 0.308939 0 
-0.150342 -1.22143 0 
0.559669 -1.29362 0 
0.718048 -1.07847 0 
0.891498 -0.911586 0 
-0.829838 -0.93712 0 
-1.12569 0.538198 0 
-1.09742 -0.467271 0 
-1.00047 -0.654913 0 
1.07122 -0.576233 0 
-0.737081 0.894824 0 
-0.519106 1.18276 0 
-0.499674 1.32618 0 
-1.22163 0.56645 0 
0.231448 -1.23365 0 
1.09099 0.522512 0 
0.669491 0.994348 0 
-1.18652 -0.075505 0 
-1.20559 -0.300206 0 
0.0783808 1.2372 0 
0.682955 -1.24556 0 
1.27858 0.295023 0 
0.793814 1.05571 0 
-0.0380206 1.20268 0 
1.29819 0.559168 0 
0.647389 1.08793 0 
-0.0329662 -1.2933 0 
1.45073 0.34823 0 
-1.18242 -0.552709 0 
-1.2158 0.366577 0 
1.16559 -0.212855 0 
0.963763 -0.784815 0 
-0.627289 -0.949585 0 
-0.468541 -1.06064 0 
-0.431799 -0.684149 0 
0.962756 -0.682461 0 
-0.485144 1.10477 0 
-1.16422 0.207156 0 
-1.47986 -0.198412 0 
-0.280293 -1.30312 0 
</DataArray>
<DataArray type="Float32" Name="err" NumberOfComponents="3">
0.129693 -0.019712 0 
-0.387531 1.98705 0 
-1.43895 1.43049 0 
-1.99796 -0.339699 0 
-1.38733 -1.47743 0 
0.714825 -1.89984 0 
1.79098 -0.946208 0 
1.99385 0.280599 0 
0.684733 1.90746 0 
0.431747 1.03238 0 
-0.061917 1.28721 0 
-1.94257 0.00748182 0 
1.37318 1.17946 0 
0.79649 1.08243 0 
-0.347401 1.09837 0 
-1.04621 0.830706 0 
-0.127204 1.80026 0 
-1.7938 0.100838 0 
-1.2984 -0.0570574 0 
-1.08766 -0.301454 0 
-0.746654 -1.08355 0 
1.44867 -1.23002 0 
-0.428859 1.77914 0 
1.26516 -1.32432 0 
0.850586 -0.970387 0 
0.952237 -0.605507 0 
1.3104 -0.0910223 0 
-1.16954 -1.30757 0 
-0.415904 -1.04778 0 
-0.112851 -1.29303 0 
1.90301 0.250116 0 
-1.27137 1.07134 0 
-0.503813 -1.64652 0 
-1.16855 -1.16338 0 
0.836416 0.52593 0 
0.571206 -0.205898 0 
0.502821 -0.61527 0 
0.221745 -0.384458 0 
0.258063 -0.299273 0 
-0.807585 0.0791976 0 
-0.426737 0.137181 0 
-0.393943 0.0467426 0 
1.11407 0.510671 0 
-0.515356 -0.27884 0 
1.17011 -0.361252 0 
0.856379 -1.54378 0 
-0.0179198 -0.867242 0 
-0.127788 -0.453439 0 
-0.043719 -0.399465 0 
0.380415 0.67753 0 
-0.45203 0.593934 0 
-1.21563 -0.273846 0 
1.68164 -0.48313 0 
0.303171 0.241038 0 
0.188428 0.533031 0 
0.558424 1.58156 0 
0.122009 0.437509 0 
0.0296734 0.393434 0 
-1.13082 0.409456 0 
0.598541 -1.32424 0 
-0.393816 -0.261034 0 
-0.29563 -0.251616 0 
1.54322 0.452218 0 
0.399118 -0.0454458 0 
0.512311 0.206018 0 
0.482307 -0.133528 0 
-0.283953 0.42695 0 
-0.249781 0.310417 0 
1.62843 1.12263 0 
0.418141 -0.695532 0 
-0.251861 0.268681 0 
0.0154634 0.878587 0 
0.934634 -0.107349 0 
0.32376 0.10233 0 
-1.32006 0.654004 0 
-1.29794 1.07078 0 
0.0765502 -0.720042 0 
1.38039 0.217839 0 
-0.988816 -0.524321 0 
0.661656 0.178054 0 
-0.93323 1.47371 0 
0.307074 0.605401 0 
-0.00888155 0.591639 0 
-0.648485 0.00106804 0 
-0.950154 -1.683 0 
0.681456 -0.384025 0 
-0.424412 -0.0227707 0 
-0.0248652 0.423697 0 
-0.490367 0.458496 0 
-0.241355 -0.37579 0 
-0.710721 0.393991 0 
-0.0858519 -1.75148 0 
-0.771582 -0.338934 0 
-1.55051 -1.12086 0 
0.181367 -0.462076 0 
0.260998 -0.794855 0 
0.0727228 1.26493 0 
-0.33965 -0.670466 0 
0.0193943 0.223454 0 
-0.0108697 0.176399 0 
-0.165188 0.0415137 0 
-0.13817 0.0115417 0 
0.244607 -0.677146 0 
-0.276978 0.790648 0 
0.849522 0.176344 0 
0.518652 0.338462 0 
-0.346555 -0.0175577 0 
0.29927 0.113387 0 
0.993962 -1.71704 0 
-0.141849 -0.174703 0 
-0.842011 1.74731 0 
0.0908704 -0.106593 0 
0.0911278 -0.149511 0 
0.0148754 -0.202531 0 
0.0290915 -0.176103 0 
0.0175869 -0.0899649 0 
-0.195299 -0.0508334 0 
0.150439 0.0921566 0 
0.101858 0.0874974 0 
0.162907 -0.0429693 0 
0.124893 -0.0163339 0 
-0.0340026 -0.222895 0 
-0.227312 0.216217 0 
0.167459 -0.104043 0 
0.420579 0.307327 0 
0.278095 0.369797 0 
0.0711735 0.0761574 0 
0.0579516 0.109319 0 
-0.293712 0.648812 0 
-0.13777 0.0919602 0 
-0.040405 0.165188 0 
0.0912116 0.153807 0 
-0.156141 -0.108616 0 
0.114286 -0.065982 0 
0.264118 0.00251257 0 
0.0316168 -0.107279 0 
-0.0959785 -0.172166 0 
0.0753859 0.75714 0 
-0.0503196 0.231488 0 
-0.0800703 -0.0540817 0 
0.00707999 -0.350918 0 
-0.110949 -0.0338361 0 
0.0291868 0.0810165 0 
-0.14186 0.15278 0 
-0.090422 0.0577731 0 
0.168304 0.225444 0 
-0.714045 0.284845 0 
0.218815 -0.16627 0 
0.205523 -1.81433 0 
0.166971 -0.199866 0 
-0.0789847 0.346961 0 
-0.265084 -0.0230253 0 
0.26082 -0.109025 0 
-0.197934 0.081687 0 
-0.0369965 0.108708 0 
-0.0329886 0.0678948 0 
0.146278 0.0424682 0 
-0.205703 0.160399 0 
0.210367 0.179502 0 
0.679754 0.67573 0 
-0.0777577 -0.212637 0 
-0.498154 -0.449382 0 
-0.0891801 0.0268671 0 
-0.245369 -0.653084 0 
0.425254 -0.341849 0 
-0.148224 -0.12152 0 
-0.8561 1.02303 0 
-0.0689116 -0.0823591 0 
0.0851111 -0.00577063 0 
0.183816 0.0144304 0 
-0.241928 -0.216076 0 
-0.157317 0.348465 0 
0.111696 0.040467 0 
-0.424602 -0.460241 0 
-0.177265 -0.0124199 0 
-0.030228 -0.0828584 0 
-0.0190092 -0.0782377 0 
-1.72767 0.63832 0 
0.0372988 0.137441 0 
-0.327948 0.191714 0 
0.41015 -0.275809 0 
0.0323953 -0.0922393 0 
-0.100481 -0.0369288 0 
0.0996647 0.228357 0 
-0.0543617 0.00163442 0 
-0.0385578 -0.00537696 0 
0.0412212 -0.0516289 0 
0.0409841 -0.0370334 0 
-0.0122929 -0.0998787 0 
0.0216251 0.0950806 0 
0.00400119 0.0394617 0 
-0.00205878 0.0330536 0 
0.0282278 -0.0219584 0 
-0.00678829 0.044198 0 
-0.0571563 -0.0484374 0 
0.0358254 0.0360477 0 
0.019276 0.0287667 0 
-0.314398 -0.0668181 0 
0.00242746 0.0466644 0 
-0.0748582 0.17286 0 
-0.0406005 0.0637321 0 
-0.0434521 0.0479593 0 
0.0373355 0.0453921 0 
0.0469667 -0.0245726 0 
0.0349745 0.0132503 0 
0.0323652 0.0209968 0 
-0.0354134 0.0217868 0 
0.0165835 -0.018626 0 
0.0326716 -0.068542 0 
0.0757176 -0.19109 0 
0.103553 -0.0508534 0 
-0.0118116 0.0538374 0 
-0.0372725 -0.0182054 0 
-0.0207957 -0.0315607 0 
0.0348601 -0.000884194 0 
0.0532153 0.0103061 0 
-0.00212276 -0.0519049 0 
-0.0986678 0.182189 0 
-1.5601 -0.353187 0 
-0.0583693 -0.0784551 0 
0.00252423 -0.0386056 0 
-0.185635 -0.0801353 0 
-0.0324994 -0.0554543 0 
-0.00152172 0.0761158 0 
-0.683086 -0.161593 0 
0.0801556 0.035551 0 
0.060173 -0.02137 0 
-0.0324183 0.00737607 0 
-0.0374972 0.0338387 0 
0.0110689 0.0208225 0 
0.00837066 0.026069 0 
1.03079 1.65628 0 
-0.0233383 0.0192489 0 
0.0172021 -0.0345276 0 
0.0306816 -0.00840905 0 
0.516139 0.0614917 0 
0.0173345 0.103105 0 
</DataArray>
<DataArray type="Float32" Name="rel_err" NumberOfComponents="1">
0.760627
0.689925
0.68659
0.680164
0.677217
0.682133
0.667098
0.690786
0.683419
0.437191
0.479065
0.708352
0.597203
0.491261
0.446053
0.490097
0.596582
0.594273
0.481213
0.439708
0.485133
0.715775
0.72354
0.60306
0.47959
0.440159
0.48462
0.584305
0.439496
0.480976
0.625572
0.563948
0.576941
0.732027
0.402816
0.289068
0.348796
0.230044
0.210898
0.353441
0.231565
0.211377
0.463183
0.281758
0.463703
0.587307
0.369913
0.24047
0.213584
0.342996
0.334021
0.468494
0.583577
0.207544
0.274433
0.566823
0.233895
0.210541
0.458125
0.517013
0.241008
0.208183
0.734912
0.213459
0.26969
0.251359
0.255771
0.21204
0.644296
0.75539
0.199749
0.756659
0.3905
0.187812
0.521363
0.733257
0.327031
0.50378
0.437386
0.314407
0.582624
0.312401
0.283692
0.302629
0.629441
0.345085
0.222649
0.222418
0.310195
0.231213
0.353877
0.726978
0.362727
0.623816
0.249849
0.361078
0.473818
0.335592
0.135764
0.112032
0.108801
0.0920035
0.325791
0.361528
0.369661
0.292715
0.191004
0.179463
0.646241
0.136358
0.631684
0.0926742
0.111266
0.125502
0.113084
0.0651818
0.12492
0.112103
0.0897361
0.107868
0.0849823
0.136494
0.17661
0.122462
0.258502
0.237036
0.0727561
0.0838161
0.323394
0.106253
0.108524
0.113293
0.11917
0.0882254
0.154596
0.0769746
0.122641
0.33838
0.141721
0.0682429
0.192741
0.0794635
0.0618816
0.127935
0.0742379
0.162409
0.340666
0.159471
0.601454
0.152869
0.194646
0.155509
0.163042
0.130794
0.0784666
0.0550523
0.0994658
0.152909
0.160248
0.394849
0.136983
0.31015
0.0660228
0.31872
0.267759
0.119916
0.489788
0.0745475
0.0613718
0.116116
0.181544
0.205559
0.0810897
0.295456
0.112704
0.0631881
0.0584961
0.605356
0.0940317
0.204503
0.249142
0.0687687
0.0743368
0.147638
0.0418464
0.0313717
0.0492542
0.0422061
0.0705592
0.0686377
0.0317594
0.0270529
0.0289108
0.0351153
0.0550606
0.0396184
0.0284188
0.180154
0.0365842
0.11789
0.0551095
0.0483056
0.0448498
0.040752
0.0304035
0.031255
0.0330543
0.021059
0.0555227
0.126667
0.0789147
0.0420661
0.0331546
0.0305664
0.0284977
0.0418069
0.0402197
0.12729
0.549354
0.0689296
0.0311511
0.125143
0.0483186
0.0555791
0.319954
0.0629525
0.0478801
0.0272944
0.0390528
0.020302
0.0230712
0.706866
0.024996
0.030981
0.026201
0.258236
0.0727385
</DataArray>
<DataArray type="Float32" Name="u_true" NumberOfComponents="3">
-0.170154 0.028146 0 
0.558156 -2.88078 0 
2.09917 -2.08007 0 
2.93653 0.504946 0 
2.0489 2.18131 0 
-1.04339 2.78684 0 
-2.68592 1.41615 0 
-2.88585 -0.409757 0 
-1.00868 -2.78862 0 
-1.00234 -2.35515 0 
0.117749 -2.68746 0 
2.74239 -0.00431736 0 
-2.30136 -1.97263 0 
-1.62939 -2.19741 0 
0.774249 -2.46387 0 
2.14121 -1.68674 0 
0.205291 -3.01817 0 
3.01894 -0.161388 0 
2.69782 0.126564 0 
2.47236 0.690007 0 
1.54124 2.23201 0 
-2.02356 1.71885 0 
0.590759 -2.45941 0 
-2.09662 2.19721 0 
-1.77092 2.02568 0 
-2.16562 1.37215 0 
-2.70479 0.175743 0 
2.00247 2.23703 0 
0.950751 2.38229 0 
0.241987 2.68769 0 
-3.0412 -0.406075 0 
2.25987 -1.89323 0 
0.878016 2.85241 0 
1.59602 1.58957 0 
-2.07568 -1.30681 0 
-1.98122 0.697701 0 
-1.43681 1.76788 0 
-0.951688 1.67824 0 
-1.21709 1.42467 0 
2.28602 -0.212625 0 
1.84857 -0.574251 0 
1.8654 -0.206273 0 
-2.40307 -1.10725 0 
1.82895 0.989873 0 
-2.52645 0.769149 0 
-1.45332 2.63125 0 
0.0576583 2.34424 0 
0.537947 1.88378 0 
0.214826 1.86916 0 
-1.12473 -1.96647 0 
1.36015 -1.7729 0 
2.59358 0.58978 0 
-2.88358 0.820959 0 
-1.46362 -1.15777 0 
-0.710069 -1.93385 0 
-0.99627 -2.78627 0 
-0.54902 -1.86268 0 
-0.168606 -1.86639 0 
2.47263 -0.881917 0 
-1.15082 2.56442 0 
1.63472 1.08206 0 
1.42172 1.20667 0 
-2.09974 -0.615779 0 
-1.87263 0.185957 0 
-1.8952 -0.774825 0 
-1.9241 0.511701 0 
1.11694 -1.66475 0 
1.18901 -1.45501 0 
-2.52799 -1.74165 0 
-0.551819 0.921793 0 
1.27404 -1.33264 0 
-0.0217231 -1.16112 0 
-2.39516 0.259355 0 
-1.71768 -0.563997 0 
2.53695 -1.24424 0 
1.77284 -1.45699 0 
-0.22278 2.20293 0 
-2.73846 -0.442432 0 
2.25998 1.2002 0 
-2.10057 -0.580572 0 
1.60391 -2.52809 0 
-1.00117 -1.92855 0 
0.0116524 -2.0857 0 
2.14283 0.00658374 0 
1.51204 2.67238 0 
-1.97834 1.10644 0 
1.90566 0.111754 0 
0.0902057 -1.9061 0 
1.59063 -1.46754 0 
1.04694 1.62332 0 
2.01596 -1.09958 0 
0.121904 2.40907 0 
2.12633 0.936312 0 
2.48488 1.79767 0 
-0.711873 1.85487 0 
-0.711902 2.20489 0 
-0.1671 -2.66884 0 
1.01576 1.99599 0 
-0.180577 -1.64219 0 
0.0630368 -1.57627 0 
1.52441 -0.356184 0 
1.5033 -0.105779 0 
-0.739138 2.08264 0 
0.761986 -2.18841 0 
-2.2952 -0.490825 0 
-1.77117 -1.15736 0 
1.81386 0.101878 0 
-1.66135 -0.648036 0 
-1.53427 2.65915 0 
1.0436 1.27849 0 
1.33287 -2.76615 0 
-0.96768 1.16103 0 
-0.799164 1.35561 0 
-0.0999196 1.61502 0 
-0.234993 1.56079 0 
-0.238137 1.38603 0 
1.56261 0.409968 0 
-1.33904 -0.826836 0 
-1.14306 -0.965693 0 
-1.51981 0.360141 0 
-1.47551 0.140096 0 
0.260116 1.63129 0 
1.30212 -1.20826 0 
-1.37405 0.838842 0 
-1.62794 -1.18758 0 
-1.188 -1.54886 0 
-0.998171 -1.02777 0 
-0.734107 -1.28072 0 
0.907664 -2.00651 0 
1.31569 -0.83622 0 
0.354543 -1.52638 0 
-0.837438 -1.3379 0 
1.31266 0.907933 0 
-1.30524 0.73055 0 
-1.70776 -0.0511063 0 
-0.38006 1.40237 0 
0.787 1.40137 0 
-0.242443 -2.2355 0 
0.337714 -1.63708 0 
1.17735 0.786474 0 
-0.0231169 1.8209 0 
1.396 0.42654 0 
-0.533573 -1.28523 0 
1.12701 -1.17708 0 
1.2409 -0.741168 0 
-1.05565 -1.37347 0 
2.10183 -0.821452 0 
-1.37408 1.04006 0 
-0.334799 3.01736 0 
-1.08294 1.31516 0 
0.392236 -1.78555 0 
1.70381 0.157199 0 
-1.60791 0.648744 0 
1.52394 -0.598184 0 
0.46155 -1.38875 0 
0.607099 -1.22942 0 
-1.46124 -0.458099 0 
1.36162 -1.02767 0 
-1.31811 -1.11385 0 
-1.7267 -1.70617 0 
0.573859 1.54999 0 
1.60726 1.4477 0 
1.36083 -0.371843 0 
0.774805 2.04722 0 
-1.58884 1.2759 0 
1.23899 1.00979 0 
1.75309 -2.08437 0 
0.929437 1.10055 0 
-1.38971 0.0280676 0 
-1.57931 -0.164961 0 
1.3347 1.18787 0 
0.765185 -1.69526 0 
-1.36686 -0.527337 0 
1.43881 1.55616 0 
1.57205 0.120847 0 
0.487143 1.30807 0 
0.337765 1.33431 0 
2.85729 -1.04544 0 
-0.446987 -1.44705 0 
1.61513 -0.917502 0 
-1.64933 1.10244 0 
-0.437817 1.35252 0 
1.35223 0.495347 0 
-0.708817 -1.53156 0 
1.29957 -0.0152993 0 
1.22748 0.182362 0 
-0.813165 1.06674 0 
-0.965459 0.883589 0 
0.190541 1.41343 0 
-0.376893 -1.36972 0 
-0.224694 -1.22851 0 
-0.014003 -1.2241 0 
-0.982026 0.752203 0 
0.136203 -1.26611 0 
1.04394 0.87273 0 
-0.927685 -0.885977 0 
-0.739523 -0.968406 0 
1.74413 0.375757 0 
-0.15277 -1.26809 0 
0.634527 -1.46648 0 
0.758649 -1.1422 0 
0.934951 -0.959545 0 
-0.867173 -0.982512 0 
-1.17266 0.56277 0 
-1.1324 -0.480521 0 
-1.03283 -0.675909 0 
1.10664 -0.59802 0 
-0.753664 0.91345 0 
-0.551778 1.2513 0 
-0.575392 1.51728 0 
-1.32519 0.617303 0 
0.243259 -1.28749 0 
1.12826 0.540717 0 
0.690286 1.02591 0 
-1.22138 -0.0746208 0 
-1.2588 -0.310512 0 
0.0805035 1.2891 0 
0.781622 -1.42775 0 
2.83867 0.64821 0 
0.852183 1.13416 0 
-0.0405448 1.24129 0 
1.48383 0.639303 0 
0.679888 1.14338 0 
-0.0314445 -1.36942 0 
2.13381 0.509824 0 
-1.26257 -0.58826 0 
-1.27597 0.387947 0 
1.19801 -0.220231 0 
1.00126 -0.818653 0 
-0.638358 -0.970407 0 
-0.476912 -1.08671 0 
-1.46259 -2.34043 0 
0.986094 -0.70171 0 
-0.502346 1.1393 0 
-1.19491 0.215565 0 
-1.996 -0.259904 0 
-0.297627 -1.40622 0 
</DataArray>
</PointData>
</Piece>
</PolyData>
</VTKFile>
