<VTKFile type="PolyData" version="0.1" byte_order="LittleEndian">
<PolyData>
<Piece NumberOfPoints="142">
<Points>
<DataArray type="Float32" Name="Points" NumberOfComponents="3">
5.23895e-05 -1.42783e-05 0 
-0.00323905 0.188423 0 
-0.134373 0.131076 0 
-0.187874 -0.00180637 0 
-0.130859 -0.134095 0 
0.00385698 -0.187182 0 
0.158289 -0.100855 0 
0.187599 0.00594448 0 
0.124437 0.140049 0 
0.0660998 0.367421 0 
-0.0766018 0.339113 0 
-0.139923 0.044683 0 
0.203827 0.165797 0 
0.179116 0.293836 0 
-0.206944 0.312226 0 
-0.311654 0.152048 0 
0.0373152 0.260455 0 
-0.262088 0.0240427 0 
-0.327218 -0.103954 0 
-0.30526 -0.216791 0 
-0.154693 -0.309863 0 
0.107287 -0.100484 0 
0.0313951 0.14441 0 
0.177454 -0.190808 0 
0.279181 -0.203617 0 
0.348497 -0.140571 0 
0.344037 0.0467688 0 
-0.195889 -0.174945 0 
-0.0945922 -0.361392 0 
0.0446302 -0.343298 0 
0.25287 -0.0239399 0 
-0.233703 0.172326 0 
-0.0770574 -0.278732 0 
-0.0998003 -0.0461263 0 
0.249945 0.31063 0 
0.465836 0.0972753 0 
0.378136 -0.205274 0 
0.47934 -0.191403 0 
0.52595 -0.0810698 0 
-0.400208 -0.15308 0 
-0.482791 -0.181463 0 
-0.440747 -0.298783 0 
0.283678 0.222214 0 
-0.255694 -0.40263 0 
0.359776 -0.0553149 0 
0.130593 -0.248576 0 
0.132445 -0.398751 0 
0.175741 -0.478738 0 
0.294093 -0.442545 0 
0.0418292 0.431697 0 
-0.394699 0.207524 0 
-0.309925 -0.174548 0 
0.266763 -0.105013 0 
0.0950242 0.525238 0 
-0.103377 0.468603 0 
0.109471 0.263328 0 
-0.188228 0.476649 0 
-0.301821 0.439018 0 
-0.364062 0.00478827 0 
0.181745 -0.273028 0 
-0.183704 -0.472805 0 
-0.0918755 -0.525785 0 
0.101688 0.00971627 0 
0.437665 0.302988 0 
0.266535 0.408343 0 
0.469612 0.180232 0 
-0.463778 0.184589 0 
-0.523273 0.0979621 0 
0.197374 0.102928 0 
0.0202475 -0.0528952 0 
-0.540448 0.0432213 0 
0.0219885 0.042394 0 
0.399189 0.0836962 0 
0.254755 0.491337 0 
-0.31131 0.0943948 0 
-0.0679856 0.0903124 0 
0.239492 -0.378951 0 
0.310252 0.124503 0 
-0.262641 -0.265659 0 
0.327109 0.321764 0 
-0.136777 0.242962 0 
-0.010255 0.453781 0 
-0.24773 0.40621 0 
-0.399297 -0.232829 0 
-0.106325 -0.221329 0 
0.431409 -0.0476376 0 
-0.394605 -0.342552 0 
-0.343615 0.394394 0 
-0.445405 0.11273 0 
0.0471061 -0.516509 0 
-0.426769 0.0363676 0 
-0.022755 -0.0922379 0 
-0.293738 -0.303191 0 
-0.216909 -0.0987053 0 
0.422529 -0.271464 0 
0.275653 -0.325405 0 
-0.0397629 0.347967 0 
-0.0247217 -0.441312 0 
-0.415078 0.439708 0 
-0.519644 0.362793 0 
-0.489116 -0.411044 0 
-0.411637 -0.520197 0 
0.328504 -0.306608 0 
-0.281642 0.322724 0 
0.350628 0.241144 0 
0.203308 0.425064 0 
-0.387073 -0.390002 0 
0.223457 0.514361 0 
0.0787454 -0.21911 0 
0.10568 -0.596714 0 
-0.0574424 0.237586 0 
0.65838 0.0623534 0 
0.631251 -0.0689212 0 
0.507097 -0.352617 0 
0.557355 -0.300542 0 
0.666469 -0.247004 0 
-0.253673 -0.564201 0 
0.0543943 0.632735 0 
-0.0764005 0.663449 0 
0.488928 0.4147 0 
0.420212 0.528495 0 
0.394085 -0.459489 0 
-0.562452 -0.0173547 0 
0.584972 0.209916 0 
0.156146 0.469882 0 
-0.00635135 0.509633 0 
-0.175979 0.675007 0 
-0.305517 0.604297 0 
-0.342658 0.295604 0 
-0.598994 -0.230432 0 
-0.584775 0.255962 0 
-0.223482 0.592107 0 
-0.0368684 -0.624815 0 
0.598355 0.299522 0 
0.379014 0.447185 0 
0.658606 -0.19826 0 
0.233599 -0.577506 0 
-0.148667 0.410492 0 
-0.522695 0.292028 0 
0.0379676 -0.705093 0 
0.381202 -0.395064 0 
-0.181846 -0.6603 0 
</DataArray>
</Points>
<PointData>
<DataArray type="Float32" Name="G" NumberOfComponents="3">
0 0 3.36129 
0 0 0.270512 
0 0 0.250788 
0 0 0.187098 
0 0 0.290915 
0 0 0.221914 
0 0 0.191886 
0 0 0.232623 
0 0 0.172317 
0 0 0.00502892 
0 0 0.0177073 
0 0 0.0458322 
0 0 0.0387077 
0 0 0.0150016 
0 0 0.015962 
0 0 0.0163028 
0 0 0.0118032 
0 0 0.0176848 
0 0 0.0105281 
0 0 0.00138235 
0 0 0.0192704 
0 0 0.101043 
0 0 0.0553299 
0 0 0.0233603 
0 0 0.0206345 
0 0 0.0069715 
0 0 0.0233362 
0 0 0.00936244 
0 0 0.00653731 
0 0 0.0172125 
0 0 0.0126703 
0 0 0.0169526 
0 0 0.0183176 
0 0 0.106226 
0 0 0.0041588 
0 0 0.00137098 
0 0 0.00131853 
0 0 0.000984095 
0 0 0.00129184 
0 0 0.000913782 
0 0 0.000783735 
0 0 0.000130166 
0 0 0.00307337 
0 0 0.00200042 
0 0 0.00868194 
0 0 0.0130197 
0 0 0.00241098 
0 0 0.000135193 
0 0 0.000450393 
0 0 0.00160228 
0 0 0.00178415 
0 0 0.0049321 
0 0 0.0117773 
0 0 0.000582711 
0 0 0.00120967 
0 0 0.0234606 
0 0 0.0009188 
0 0 0.000787681 
0 0 0.00648235 
0 0 0.00561088 
0 0 0.000861102 
0 0 0.000624459 
0 0 0.0905355 
0 0 0.000270205 
0 0 0.00146461 
0 0 0.0012274 
0 0 0.000244435 
0 0 0.000103967 
0 0 0.0175606 
0 0 0.0145542 
0 0 0.000614744 
0 0 0.042382 
0 0 0.00153995 
0 0 0.00040534 
0 0 0.00428019 
0 0 0.0350349 
0 0 0.00107501 
0 0 0.00707993 
0 0 0.0102599 
0 0 0.000441605 
0 0 0.0142662 
0 0 0.000587285 
0 0 0.000957101 
0 0 0.00103573 
0 0 0.0110067 
0 0 0.000724922 
0 0 0.000547052 
0 0 0.000667787 
0 0 0.00152394 
0 0 0.000992112 
0 0 0.000626743 
0 0 0.00345761 
0 0 0.00137158 
0 0 0.0442136 
0 0 0.000773541 
0 0 0.000952383 
0 0 0.0012702 
0 0 0.00110036 
0 0 2.52907e-05 
0 0 6.9693e-05 
0 0 1.56563e-05 
0 0 2.66013e-05 
0 0 0.000643966 
0 0 0.00369829 
0 0 0.000640869 
0 0 1.66567e-05 
0 0 0.000165657 
0 0 5.31166e-05 
0 0 0.0439482 
0 0 4.75968e-06 
0 0 0.00276956 
0 0 0.000105538 
0 0 6.00538e-06 
0 0 3.99245e-05 
0 0 2.01118e-05 
0 0 2.60126e-05 
0 0 0.000106662 
0 0 3.29448e-05 
0 0 4.20923e-05 
0 0 0 
0 0 3.22945e-05 
0 0 3.86191e-05 
0 0 1.56869e-05 
0 0 3.56519e-05 
0 0 0.00024837 
0 0 3.8149e-05 
0 0 0 
0 0 1.51181e-05 
0 0 0.00100622 
0 0 2.40283e-05 
0 0 4.32831e-05 
0 0 3.14964e-05 
0 0 2.21918e-05 
0 0 1.43029e-05 
0 0 6.09609e-05 
0 0 2.75151e-05 
0 0 1.49152e-05 
0 0 4.48003e-06 
0 0 2.03402e-05 
0 0 1.4798e-05 
0 0 6.20983e-06 
0 0 1.9785e-06 
</DataArray>
<DataArray type="Float32" Name="u" NumberOfComponents="3">
0.00022777 0.00103605 0 
-1.05666 -0.0174581 0 
-0.735731 -0.753918 0 
0.00971138 -1.05399 0 
0.752846 -0.733598 0 
1.05177 0.022875 0 
0.566688 0.888174 0 
-0.033361 1.05262 0 
-0.78662 0.6991 0 
-1.52941 0.276161 0 
-1.48443 -0.334701 0 
-0.261756 -0.818617 0 
-0.841631 1.03414 0 
-1.29538 0.790078 0 
-1.29607 -0.859325 0 
-0.66687 -1.3674 0 
-1.32058 0.190045 0 
-0.122481 -1.32898 0 
0.457908 -1.44477 0 
0.899835 -1.26772 0 
1.36026 -0.67718 0 
0.5887 0.628095 0 
-0.844625 0.184265 0 
0.972179 0.902827 0 
0.896029 1.22601 0 
0.582853 1.44225 0 
-0.205616 1.50669 0 
0.887364 -0.992946 0 
1.50403 -0.391524 0 
1.50781 0.197214 0 
0.123079 1.29922 0 
-0.836249 -1.13443 0 
1.35573 -0.372833 0 
0.278002 -0.600815 0 
-1.22772 0.98788 0 
-0.325279 1.55171 0 
0.758879 1.3949 0 
0.581228 1.45289 0 
0.236541 1.5349 0 
0.566354 -1.48417 0 
0.54976 -1.46655 0 
0.871014 -1.28639 0 
-0.949919 1.21163 0 
1.33871 -0.848772 0 
0.234527 1.52466 0 
1.22646 0.643979 0 
1.50561 0.50029 0 
1.47361 0.540902 0 
1.29514 0.859244 0 
-1.58184 0.154323 0 
-0.739915 -1.40853 0 
0.751599 -1.33592 0 
0.51325 1.30149 0 
-1.52736 0.277349 0 
-1.54718 -0.340704 0 
-1.28911 0.536614 0 
-1.45816 -0.575649 0 
-1.27945 -0.880188 0 
-0.0211414 -1.54439 0 
1.24129 0.825217 0 
1.46499 -0.567273 0 
1.52941 -0.265289 0 
-0.0587402 0.616467 0 
-0.885046 1.27684 0 
-1.32438 0.864822 0 
-0.565066 1.46863 0 
-0.582558 -1.46488 0 
-0.286126 -1.52759 0 
-0.553633 1.06077 0 
0.328236 0.126255 0 
-0.123757 -1.54103 0 
-0.263523 0.137328 0 
-0.325331 1.54625 0 
-1.36262 0.707139 0 
-0.431279 -1.42176 0 
-0.54333 -0.40841 0 
1.34532 0.848941 0 
-0.559856 1.39249 0 
1.10504 -1.09195 0 
-1.11532 1.13329 0 
-1.2015 -0.676238 0 
-1.5897 -0.0349645 0 
-1.35358 -0.825853 0 
0.799671 -1.37337 0 
1.15236 -0.551844 0 
0.174187 1.57888 0 
1.02301 -1.17899 0 
-1.1761 -1.02564 0 
-0.390277 -1.54186 0 
1.5573 0.143327 0 
-0.135567 -1.58341 0 
0.56174 -0.137495 0 
1.1393 -1.10336 0 
0.518621 -1.14044 0 
0.851979 1.32307 0 
1.21261 1.0252 0 
-1.51572 -0.172406 0 
1.58814 -0.0870815 0 
-1.07603 -1.01684 0 
-0.826496 -1.1854 0 
0.925356 -1.1019 0 
1.10368 -0.872968 0 
1.08635 1.16136 0 
-1.19621 -1.04474 0 
-0.900505 1.30777 0 
-1.43183 0.685582 0 
1.09215 -1.084 0 
-1.40128 0.609535 0 
1.16223 0.41804 0 
1.45597 0.258662 0 
-1.23866 -0.298876 0 
-0.133788 1.40317 0 
0.156395 1.43486 0 
0.837472 1.20172 0 
0.687157 1.27175 0 
0.467529 1.25967 0 
1.33565 -0.599057 0 
-1.43798 0.124502 0 
-1.39189 -0.15961 0 
-0.929021 1.09447 0 
-1.08881 0.865736 0 
1.12399 0.962067 0 
0.0462303 -1.52614 0 
-0.49435 1.37398 0 
-1.49727 0.498508 0 
-1.5695 -0.0186029 0 
-1.31746 -0.343048 0 
-1.23926 -0.626634 0 
-1.03831 -1.20479 0 
0.514196 -1.34007 0 
-0.576571 -1.31886 0 
-1.35302 -0.510473 0 
1.45224 -0.0841687 0 
-0.627217 1.25071 0 
-1.14555 0.970812 0 
0.396617 1.31601 0 
1.35191 0.546608 0 
-1.49454 -0.540985 0 
-0.724836 -1.29906 0 
1.34744 0.0735827 0 
1.10865 1.06743 0 
1.3292 -0.364603 0 
</DataArray>
<DataArray type="Float32" Name="err" NumberOfComponents="3">
-0.000445355 -0.00143376 0 
3.25443 0.0566505 0 
2.27766 2.33526 0 
-0.0317714 3.26046 0 
-2.33699 2.28166 0 
-3.2653 -0.0660804 0 
-1.75233 -2.75145 0 
0.10332 -3.26083 0 
2.44081 -2.16855 0 
1.10325 -0.197459 0 
1.31187 0.296953 0 
1.06033 3.32144 0 
1.46733 -1.80445 0 
1.17654 -0.716755 0 
0.926192 0.613593 0 
0.593235 1.21544 0 
2.29774 -0.328349 0 
0.211364 2.31024 0 
-0.420569 1.32042 0 
-0.644575 0.906938 0 
-1.21407 0.608006 0 
-2.38254 -2.54429 0 
3.40604 -0.739841 0 
-1.7236 -1.60429 0 
-0.803149 -1.10375 0 
-0.411339 -1.02251 0 
0.181029 -1.33752 0 
-1.55071 1.737 0 
-1.08203 0.285362 0 
-1.34662 -0.173875 0 
-0.230265 -2.43305 0 
1.16923 1.58534 0 
-1.91256 0.530707 0 
-1.37962 2.98567 0 
0.725283 -0.58359 0 
0.104248 -0.505225 0 
-0.349787 -0.647371 0 
-0.137245 -0.346418 0 
-0.0497265 -0.322292 0 
-0.26727 0.695229 0 
-0.132389 0.348335 0 
-0.182785 0.26811 0 
0.75761 -0.968199 0 
-0.431125 0.275183 0 
-0.18214 -1.18541 0 
-1.84964 -0.972096 0 
-0.752486 -0.249738 0 
-0.367152 -0.134824 0 
-0.272297 -0.182392 0 
0.712731 -0.0680082 0 
0.3036 0.576174 0 
-0.624462 1.10739 0 
-0.737911 -1.8768 0 
0.316195 -0.0561808 0 
0.48775 0.108216 0 
1.87882 -0.780364 0 
0.356784 0.141071 0 
0.2673 0.183186 0 
0.0149093 1.19662 0 
-1.2808 -0.853648 0 
-0.37262 0.146714 0 
-0.316153 0.0572041 0 
0.303058 -3.17003 0 
0.18425 -0.267753 0 
0.392878 -0.256072 0 
0.147256 -0.387394 0 
0.158273 0.396446 0 
0.0595266 0.318745 0 
1.32269 -2.53726 0 
-1.98601 -0.759607 0 
0.0232776 0.297529 0 
1.63137 -0.845497 0 
0.177582 -0.852396 0 
0.24142 -0.124546 0 
0.45464 1.49996 0 
2.65484 1.99911 0 
-0.540236 -0.342707 0 
0.548457 -1.36933 0 
-0.795933 0.787418 0 
0.412935 -0.420357 0 
1.84384 1.03815 0 
0.612744 0.0148085 0 
0.440773 0.268449 0 
-0.290063 0.495507 0 
-2.30464 1.10887 0 
-0.0786533 -0.710862 0 
-0.231507 0.266158 0 
0.2653 0.230182 0 
0.143726 0.568028 0 
-0.362803 -0.0317883 0 
0.0626362 0.742477 0 
-2.9799 0.736225 0 
-0.561663 0.544567 0 
-1.09991 2.41634 0 
-0.224297 -0.352137 0 
-0.576241 -0.490147 0 
1.31234 0.150762 0 
-0.670515 0.0394458 0 
0.126565 0.118393 0 
0.076763 0.108378 0 
-0.0816319 0.0963455 0 
-0.0784526 0.0624656 0 
-0.431977 -0.465398 0 
0.562452 0.490057 0 
0.430855 -0.628058 0 
0.482707 -0.230137 0 
-0.199557 0.198006 0 
0.234201 -0.10098 0 
-2.56582 -0.921776 0 
-0.168906 -0.0291093 0 
2.50007 0.605057 0 
0.00878194 -0.102207 0 
-0.0145287 -0.130634 0 
-0.0868527 -0.127545 0 
-0.0623809 -0.118267 0 
-0.0214028 -0.0595669 0 
-0.138723 0.06384 0 
0.130863 -0.0103675 0 
0.0956587 0.0116913 0 
0.0799155 -0.0950556 0 
0.070465 -0.0560137 0 
-0.129964 -0.113394 0 
-0.00857649 0.2501 0 
0.0491119 -0.140478 0 
0.419262 -0.138372 0 
0.392381 0.00584722 0 
0.0697269 0.0186001 0 
0.0786801 0.0396839 0 
0.405001 0.468266 0 
-0.0452508 0.11418 0 
0.0515896 0.116247 0 
0.125275 0.0474859 0 
-0.142681 0.00994267 0 
0.0417438 -0.0856749 0 
0.155817 -0.132172 0 
-0.0224762 -0.0761911 0 
-0.136192 -0.0553247 0 
0.658808 0.238891 0 
0.0897692 0.158985 0 
-0.06671 -0.00256605 0 
-0.202149 -0.197378 0 
-0.0784973 0.023076 0 
</DataArray>
<DataArray type="Float32" Name="rel_err" NumberOfComponents="1">
0.586484
0.754901
0.755899
0.755707
0.756522
0.756363
0.755874
0.755968
0.756244
0.418995
0.469192
0.802245
0.635609
0.475884
0.41672
0.470622
0.634997
0.634803
0.477629
0.417153
0.471903
0.801944
0.801265
0.639613
0.473382
0.414696
0.470224
0.636172
0.418613
0.471713
0.651893
0.582938
0.585342
0.832445
0.371367
0.245499
0.316648
0.192323
0.173541
0.319206
0.192199
0.172782
0.443983
0.243952
0.437403
0.601341
0.333212
0.199465
0.174145
0.310573
0.290444
0.453371
0.590408
0.171417
0.239753
0.592997
0.196615
0.172639
0.436558
0.508029
0.203132
0.171488
0.837197
0.173012
0.228684
0.208468
0.21308
0.172622
0.705128
0.858079
0.161805
0.860791
0.35527
0.150347
0.513365
0.830202
0.286821
0.495676
0.418837
0.270384
0.605483
0.278221
0.245555
0.265401
0.666856
0.310462
0.184331
0.183728
0.269218
0.18889
0.3192
0.841461
0.330326
0.679398
0.20968
0.322683
0.464075
0.296912
0.104795
0.0841692
0.0806791
0.0665242
0.285355
0.319593
0.324177
0.251977
0.15447
0.143029
0.688217
0.103866
0.668732
0.0678412
0.0834642
0.0953079
0.0846682
0.0449883
0.0944658
0.0833676
0.0643595
0.079617
0.060778
0.104408
0.140819
0.0924885
0.218612
0.200009
0.0503401
0.0596703
0.280193
0.0788245
0.0811842
0.0847886
0.0895209
0.0637709
0.119774
0.0546369
0.0915756
0.305989
0.109317
0.0471397
0.155106
0.0560363
</DataArray>
<DataArray type="Float32" Name="u_true" NumberOfComponents="3">
0.000673124 0.00246981 0 
-4.31108 -0.0741086 0 
-3.0134 -3.08918 0 
0.0414828 -4.31445 0 
3.08983 -3.01526 0 
4.31708 0.0889554 0 
2.31902 3.63962 0 
-0.136681 4.31345 0 
-3.22743 2.86765 0 
-2.63265 0.473619 0 
-2.7963 -0.631654 0 
-1.32208 -4.14005 0 
-2.30896 2.83859 0 
-2.47192 1.50683 0 
-2.22226 -1.47292 0 
-1.26011 -2.58284 0 
-3.61832 0.518394 0 
-0.333845 -3.63922 0 
0.878478 -2.76519 0 
1.54441 -2.17466 0 
2.57433 -1.28519 0 
2.97124 3.17239 0 
-4.25066 0.924107 0 
2.69578 2.50711 0 
1.69918 2.32976 0 
0.994192 2.46476 0 
-0.386645 2.84421 0 
2.43808 -2.72995 0 
2.58606 -0.676887 0 
2.85443 0.371088 0 
0.353344 3.73227 0 
-2.00548 -2.71978 0 
3.26829 -0.90354 0 
1.65762 -3.58648 0 
-1.95301 1.57147 0 
-0.429527 2.05694 0 
1.10867 2.04227 0 
0.718472 1.7993 0 
0.286267 1.85719 0 
0.833624 -2.1794 0 
0.682149 -1.81489 0 
1.0538 -1.5545 0 
-1.70753 2.17983 0 
1.76984 -1.12396 0 
0.416667 2.71006 0 
3.0761 1.61607 0 
2.2581 0.750028 0 
1.84076 0.675727 0 
1.56743 1.04164 0 
-2.29457 0.222331 0 
-1.04351 -1.98471 0 
1.37606 -2.44331 0 
1.25116 3.17829 0 
-1.84356 0.333529 0 
-2.03493 -0.44892 0 
-3.16793 1.31698 0 
-1.81494 -0.716719 0 
-1.54675 -1.06337 0 
-0.0360507 -2.74101 0 
2.52209 1.67887 0 
1.83761 -0.713988 0 
1.84556 -0.322493 0 
-0.361798 3.7865 0 
-1.0693 1.54459 0 
-1.71726 1.12089 0 
-0.712322 1.85602 0 
-0.740831 -1.86133 0 
-0.345653 -1.84633 0 
-1.87632 3.59803 0 
2.31425 0.885861 0 
-0.147035 -1.83856 0 
-1.89489 0.982825 0 
-0.502914 2.39865 0 
-1.60404 0.831685 0 
-0.885919 -2.92172 0 
-3.19817 -2.40752 0 
1.88556 1.19165 0 
-1.10831 2.76182 0 
1.90097 -1.87937 0 
-1.52826 1.55365 0 
-3.04534 -1.71439 0 
-2.20245 -0.049773 0 
-1.79436 -1.0943 0 
1.08973 -1.86887 0 
3.457 -1.66072 0 
0.252841 2.28974 0 
1.25451 -1.44515 0 
-1.4414 -1.25582 0 
-0.534003 -2.10988 0 
1.9201 0.175115 0 
-0.198203 -2.32589 0 
3.54164 -0.87372 0 
1.70096 -1.64793 0 
1.61853 -3.55679 0 
1.07628 1.67521 0 
1.78885 1.51535 0 
-2.82806 -0.323168 0 
2.25866 -0.126527 0 
-1.20259 -1.13523 0 
-0.903259 -1.29378 0 
1.00699 -1.19825 0 
1.18213 -0.935433 0 
1.51833 1.62675 0 
-1.75866 -1.53479 0 
-1.33136 1.93582 0 
-1.91453 0.915719 0 
1.29171 -1.28201 0 
-1.63549 0.710515 0 
3.72805 1.33982 0 
1.62488 0.287771 0 
-3.73873 -0.903933 0 
-0.14257 1.50538 0 
0.170924 1.56549 0 
0.924325 1.32927 0 
0.749538 1.39002 0 
0.488931 1.31924 0 
1.47437 -0.662897 0 
-1.56885 0.134869 0 
-1.48755 -0.171301 0 
-1.00894 1.18953 0 
-1.15927 0.921749 0 
1.25395 1.07546 0 
0.0548068 -1.77624 0 
-0.543462 1.51446 0 
-1.91653 0.63688 0 
-1.96188 -0.0244501 0 
-1.38718 -0.361649 0 
-1.31794 -0.666318 0 
-1.44331 -1.67306 0 
0.559446 -1.45425 0 
-0.628161 -1.43511 0 
-1.47829 -0.557959 0 
1.59492 -0.0941114 0 
-0.66896 1.33638 0 
-1.30137 1.10298 0 
0.419094 1.3922 0 
1.48811 0.601933 0 
-2.15335 -0.779875 0 
-0.814605 -1.45804 0 
1.41415 0.0761488 0 
1.3108 1.26481 0 
1.4077 -0.387679 0 
</DataArray>
</PointData>
</Piece>
</PolyData>
</VTKFile>
