<VTKFile type="PolyData" version="0.1" byte_order="LittleEndian">
<PolyData>
<Piece NumberOfPoints="331">
<Points>
<DataArray type="Float32" Name="Points" NumberOfComponents="3">
0.0235089 0.0429967 0 
0.0531911 -0.18782 0 
0.167155 -0.0782538 0 
0.186028 0.0627794 0 
0.0385315 0.170498 0 
-0.122369 0.133051 0 
-0.194187 0.0601144 0 
-0.148174 -0.0938543 0 
-0.00833544 -0.205162 0 
-0.208355 -0.318338 0 
0.00695217 -0.354924 0 
0.154038 0.0522383 0 
-0.135968 -0.222292 0 
-0.195737 -0.280247 0 
0.0538766 -0.365907 0 
0.245774 -0.234428 0 
0.0985365 -0.23958 0 
0.248233 0.0955767 0 
0.341717 -0.00405887 0 
0.373142 0.034881 0 
0.237876 0.249279 0 
-0.142895 0.0388393 0 
0.0393399 -0.123337 0 
-0.228565 0.134439 0 
-0.230353 0.264185 0 
-0.274785 0.259299 0 
-0.340185 0.0215735 0 
0.140434 0.225018 0 
0.196422 0.317752 0 
0.0508088 0.347635 0 
-0.207575 -0.113448 0 
0.253603 -0.139731 0 
0.0083882 0.294287 0 
-0.0738689 0.0421612 0 
-0.37552 -0.130687 0 
-0.3299 0.334547 0 
-0.127666 0.409584 0 
0.036622 0.518595 0 
-0.0373255 0.532338 0 
0.39577 -0.157558 0 
0.32301 -0.398871 0 
0.385283 -0.364712 0 
-0.331162 -0.138098 0 
0.477217 0.0218217 0 
-0.331582 0.129405 0 
-0.191321 0.194698 0 
0.122846 0.40051 0 
0.386861 0.330384 0 
0.363816 0.38664 0 
-0.329804 -0.290409 0 
0.139858 -0.416133 0 
0.352915 0.0455772 0 
-0.268987 -0.0240458 0 
-0.536033 -0.010424 0 
-0.369433 -0.31608 0 
-0.0287874 -0.302618 0 
-0.402323 -0.323315 0 
-0.363983 -0.391985 0 
0.323838 -0.164669 0 
-0.166586 0.270467 0 
0.509091 0.0135583 0 
0.535981 0.0306828 0 
-0.0186317 -0.0954117 0 
-0.392459 0.352857 0 
-0.48317 0.0549109 0 
-0.347921 0.356937 0 
0.0236859 -0.496044 0 
0.0191828 -0.530558 0 
-0.129543 -0.172454 0 
-0.0436077 -0.00658002 0 
0.0471797 -0.538807 0 
0.0487034 -0.0313623 0 
-0.372216 0.144544 0 
-0.510468 0.205279 0 
0.29136 -0.127677 0 
0.111118 -0.040832 0 
0.119108 0.433173 0 
-0.311949 -0.0826337 0 
0.356711 0.11617 0 
-0.449515 0.0615913 0 
0.196026 -0.196582 0 
-0.356357 -0.290501 0 
-0.220792 -0.425559 0 
0.419808 -0.191997 0 
0.041912 0.238191 0 
-0.264683 0.343904 0 
0.439348 -0.281442 0 
-0.281901 -0.442249 0 
0.194273 -0.411739 0 
0.476298 0.201748 0 
0.290707 -0.308271 0 
-0.102433 0.0348075 0 
0.423016 0.0230841 0 
0.123468 0.191566 0 
0.0973074 0.497172 0 
0.0148203 0.432547 0 
-0.0523671 -0.355127 0 
0.324247 0.300019 0 
-0.486789 -0.361389 0 
-0.473865 -0.422847 0 
0.277526 -0.573712 0 
0.353932 -0.560162 0 
0.0290769 0.453274 0 
0.0127097 -0.426016 0 
-0.414336 0.0516094 0 
-0.466315 -0.0695835 0 
0.439303 -0.328976 0 
-0.524166 0.191348 0 
-0.132542 0.178467 0 
0.606068 0.0327795 0 
0.170658 -0.174347 0 
0.15684 0.64331 0 
0.217734 0.597598 0 
0.437598 0.436994 0 
0.42405 0.471891 0 
0.531026 0.473585 0 
0.511751 -0.346971 0 
-0.599545 0.208257 0 
-0.647478 0.164031 0 
-0.269004 0.57972 0 
-0.330895 0.586713 0 
0.504786 0.333739 0 
0.052851 -0.558531 0 
-0.0977687 0.612403 0 
-0.492268 -0.054976 0 
-0.483935 -0.175727 0 
-0.684765 0.135392 0 
-0.675386 -0.059607 0 
0.0283219 -0.447217 0 
0.0738018 -0.635783 0 
-0.393066 -0.502849 0 
-0.630351 -0.0765223 0 
0.605476 -0.162364 0 
-0.0737394 0.663856 0 
-0.425235 0.399981 0 
0.450897 0.520974 0 
0.610141 0.120994 0 
-0.199029 -0.398751 0 
-0.341982 -0.491325 0 
0.64493 -0.287949 0 
0.337425 0.431968 0 
0.534475 -0.427723 0 
-0.711152 -0.110041 0 
-0.0477587 -0.611296 0 
0.0359391 -0.689771 0 
-0.572177 -0.0870511 0 
0.327968 -0.279946 0 
-0.0895006 0.57158 0 
-0.10283 0.223818 0 
0.0544347 0.58521 0 
-0.244158 -0.491055 0 
0.451659 -0.370129 0 
-0.236919 0.524059 0 
0.20987 -0.571762 0 
-0.414725 -0.543657 0 
-0.401555 -0.609341 0 
-0.531507 0.377833 0 
0.079059 -0.579361 0 
-0.579538 0.0382296 0 
-0.354453 -0.200004 0 
0.558529 0.231538 0 
0.436667 0.148856 0 
0.207096 -0.677005 0 
0.306869 0.332154 0 
-0.191491 0.449374 0 
0.615291 -0.113392 0 
0.190022 -0.282169 0 
0.690055 -0.0796994 0 
-0.357545 0.623096 0 
-0.44974 0.43958 0 
0.559766 0.00717083 0 
-0.11839 -0.523297 0 
-0.561585 0.386576 0 
0.435949 0.179068 0 
0.438689 -0.457452 0 
0.702876 0.138425 0 
0.696875 0.205847 0 
0.260155 0.0262144 0 
-0.623664 -0.220804 0 
0.205098 -0.494616 0 
-0.21726 0.450844 0 
0.447348 0.543554 0 
0.558492 -0.412095 0 
-0.56219 -0.194678 0 
0.347471 -0.685851 0 
0.445687 -0.670865 0 
0.297402 0.684239 0 
0.192153 0.73984 0 
0.636175 0.296019 0 
-0.673897 -0.207258 0 
-0.774243 -0.207497 0 
-0.748308 -0.329565 0 
0.175075 0.789327 0 
-0.662791 -0.42249 0 
0.68991 -0.254024 0 
-0.734527 0.260806 0 
-0.799117 0.1875 0 
0.490256 -0.26934 0 
-0.73809 -0.263951 0 
-0.275856 -0.562846 0 
-0.318052 -0.656515 0 
-0.210848 -0.715911 0 
-0.741803 0.178782 0 
-0.023833 0.768229 0 
-0.599859 0.547605 0 
-0.68684 0.428904 0 
-0.0359686 -0.793656 0 
0.391065 0.748765 0 
0.428967 0.592952 0 
0.282873 0.548277 0 
-0.11056 0.674589 0 
-0.596836 -0.476497 0 
0.621225 -0.502495 0 
0.798982 -0.127029 0 
-0.381095 0.722195 0 
-0.505791 0.581162 0 
0.710121 0.309379 0 
-0.204499 -0.580554 0 
0.267519 0.13097 0 
0.703257 -0.0529935 0 
0.717626 0.365723 0 
0.559291 -0.263876 0 
0.751601 -0.0263186 0 
-0.639368 -0.354351 0 
0.444221 -0.0856657 0 
-0.596627 0.398099 0 
-0.154027 0.733351 0 
0.195506 -0.796791 0 
-0.159528 -0.7561 0 
-0.844291 0.169597 0 
-0.843086 0.0114995 0 
-0.0575 -0.147032 0 
-0.164038 -0.809392 0 
0.526741 0.606675 0 
-0.195481 0.799668 0 
-0.451912 0.192376 0 
-0.649412 -0.252743 0 
0.465324 -0.580224 0 
-0.213374 -0.648576 0 
-0.527849 -0.273246 0 
-0.00099647 -0.807666 0 
0.278276 0.154236 0 
0.278907 0.500772 0 
0.71143 -0.228478 0 
0.121376 0.793449 0 
0.271486 0.383495 0 
0.486635 -0.633368 0 
-0.416682 0.622829 0 
-0.271382 0.817728 0 
-0.565602 -0.559982 0 
-0.629472 0.394117 0 
-0.748313 0.123098 0 
0.357772 0.770251 0 
-0.715083 0.406735 0 
0.474047 0.644408 0 
0.515737 -0.684507 0 
-0.290738 0.0859074 0 
0.703333 0.499383 0 
0.503621 0.384887 0 
0.219579 0.000263935 0 
-0.150606 -0.00382349 0 
0.290815 0.196718 0 
0.541874 -0.157744 0 
-0.459739 -0.670257 0 
-0.667087 0.0543881 0 
-0.201412 0.703539 0 
-0.797098 0.105788 0 
0.670093 -0.447898 0 
0.764326 -0.463359 0 
0.235133 -0.791222 0 
0.531391 -0.60966 0 
-0.142505 -0.43368 0 
0.760777 -0.190743 0 
-0.419901 0.204549 0 
-0.112846 0.386983 0 
0.343089 -0.117606 0 
-0.0328572 0.851049 0 
-0.801963 -0.0594642 0 
0.813226 0.147774 0 
0.362621 0.873228 0 
-0.527256 -0.446355 0 
0.0529572 -0.751082 0 
-0.639373 0.542661 0 
-0.21843 -0.0887994 0 
-0.187215 -0.342187 0 
0.789881 0.00159299 0 
0.0757797 0.735265 0 
0.866203 -0.109125 0 
0.212741 0.912563 0 
-0.464744 0.75878 0 
0.677749 0.58247 0 
-0.137861 -0.690539 0 
-0.0457746 0.306661 0 
0.0503282 0.091059 0 
-0.903203 -0.0827194 0 
0.593951 0.354618 0 
0.0576134 -0.83683 0 
0.314805 -0.802049 0 
-0.375963 -0.778806 0 
0.191858 0.455104 0 
-0.653447 0.357866 0 
0.642884 0.44023 0 
0.815705 -0.29942 0 
0.58244 0.476955 0 
-0.126681 -0.266493 0 
-0.0903066 0.866243 0 
0.891746 0.192003 0 
0.825037 0.323658 0 
-0.415955 0.529028 0 
-0.719302 0.053805 0 
0.0899134 0.62922 0 
0.888942 -0.0620535 0 
-0.362536 0.421875 0 
-0.596243 -0.612473 0 
0.489881 0.68958 0 
0.299983 0.867524 0 
-0.322872 -0.83833 0 
0.739901 -0.413521 0 
-0.831519 -0.351556 0 
0.517755 -0.0426334 0 
0.840224 0.00375442 0 
0.345505 0.192257 0 
0.622971 -0.405106 0 
-0.786674 -0.476431 0 
-0.730303 -0.607455 0 
-0.331738 0.835128 0 
-0.0692259 -0.710206 0 
0.0762693 0.922529 0 
-0.263933 -0.213439 0 
-0.585926 0.323703 0 
-0.0188995 0.128456 0 
</DataArray>
</Points>
<PointData>
<DataArray type="Float32" Name="G" NumberOfComponents="3">
0 0 0.822655 
0 0 0.135726 
0 0 0.22759 
0 0 0.1202 
0 0 0.197923 
0 0 0.177894 
0 0 0.146414 
0 0 0.27041 
0 0 0.166023 
0 0 0.0261621 
0 0 0.0359142 
0 0 0.185236 
0 0 0.072561 
0 0 0.035799 
0 0 0.0375171 
0 0 0.0251058 
0 0 0.0671024 
0 0 0.0440372 
0 0 0.052589 
0 0 0.0108443 
0 0 0.0515225 
0 0 0.123849 
0 0 0.166455 
0 0 0.0704056 
0 0 0.0374017 
0 0 0.0302035 
0 0 0.0310837 
0 0 0.0667969 
0 0 0.0248453 
0 0 0.0402729 
0 0 0.0672278 
0 0 0.0572479 
0 0 0.0669431 
0 0 0.159596 
0 0 0.0178759 
0 0 0.0188203 
0 0 0.0225677 
0 0 0.00346625 
0 0 0.00469443 
0 0 0.0176495 
0 0 0.00498643 
0 0 0.00672114 
0 0 0.0433051 
0 0 0.00736469 
0 0 0.0309181 
0 0 0.0632643 
0 0 0.0210349 
0 0 0.00953227 
0 0 0.00557385 
0 0 0.0154072 
0 0 0.020294 
0 0 0.0177365 
0 0 0.0514792 
0 0 0.004188 
0 0 0.00498044 
0 0 0.0767526 
0 0 0.00208081 
0 0 0.00505777 
0 0 0.0187018 
0 0 0.0439953 
0 0 0.0040837 
0 0 0.00406161 
0 0 0.140506 
0 0 0.00458458 
0 0 0.00641121 
0 0 0.0044016 
0 0 0.00558313 
0 0 0.00104016 
0 0 0.0596519 
0 0 0.121569 
0 0 0.0020619 
0 0 0.094101 
0 0 0.0106364 
0 0 0.00257779 
0 0 0.0259905 
0 0 0.0819667 
0 0 0.00683946 
0 0 0.0211525 
0 0 0.0306977 
0 0 0.00617379 
0 0 0.0584046 
0 0 0.00351062 
0 0 0.00589566 
0 0 0.00779294 
0 0 0.0505874 
0 0 0.0109889 
0 0 0.00191033 
0 0 0.00425317 
0 0 0.00956957 
0 0 0.00693504 
0 0 0.0105741 
0 0 0.132981 
0 0 0.0056015 
0 0 0.0869806 
0 0 0.00616132 
0 0 0.0234507 
0 0 0.0203565 
0 0 0.00453491 
0 0 0.00181232 
0 0 0.00172319 
0 0 0.00150072 
0 0 0.00125344 
0 0 0.00314568 
0 0 0.00757613 
0 0 0.014547 
0 0 0.00901872 
0 0 0.000706299 
0 0 0.00113137 
0 0 0.0291485 
0 0 0.00130181 
0 0 0.0824378 
0 0 0.00128436 
0 0 0.00185561 
0 0 0.00173986 
0 0 0.000819134 
0 0 0.000731831 
0 0 0.000767145 
0 0 0.00220758 
0 0 0.000631126 
0 0 0.00185162 
0 0 0.00133772 
0 0 0.00225934 
0 0 0.00123447 
0 0 0.00260935 
0 0 0.00169327 
0 0 0.00482699 
0 0 0.000426135 
0 0 0.000650024 
0 0 0.0070546 
0 0 0.00154413 
0 0 0.0012657 
0 0 0.000713068 
0 0 0.0011478 
0 0 0.0010295 
0 0 0.00148921 
0 0 0.000654913 
0 0 0.00379693 
0 0 0.00856766 
0 0 0.0015758 
0 0 0.000611076 
0 0 0.00416849 
0 0 0.000782032 
0 0 0.000532609 
0 0 0.00267655 
0 0 0.000131982 
0 0 0.00405197 
0 0 0.0109347 
0 0 0.00242579 
0 0 0.0635143 
0 0 0.00242023 
0 0 0.00306468 
0 0 0.000614752 
0 0 0.00247341 
0 0 0.00199071 
0 0 0.000374227 
0 0 0.000499629 
0 0 0.00217128 
0 0 0.00157072 
0 0 0.00153613 
0 0 0.017109 
0 0 0.00138807 
0 0 0.00837236 
0 0 0.00071535 
0 0 0.0042298 
0 0 0.00695007 
0 0 0.00138093 
0 0 0.0331365 
0 0 0.000498994 
0 0 0.000559313 
0 0 0.000669934 
0 0 0.00105663 
0 0 0.0048559 
0 0 0.00046307 
0 0 0.00720136 
0 0 0.000893718 
0 0 0.000378243 
0 0 0.000582999 
0 0 0.0476245 
0 0 0.00116724 
0 0 0.00296073 
0 0 0.0026463 
0 0 0.000172929 
0 0 0.000737398 
0 0 0.00365637 
0 0 0.000228881 
0 0 0.000191998 
0 0 0.000486991 
0 0 0.000549745 
0 0 0.000801965 
0 0 0.000371596 
0 0 6.28717e-05 
0 0 0.000162337 
0 0 0.000168075 
0 0 0.000124792 
0 0 0.000315275 
0 0 0.000236875 
0 0 3.79224e-05 
0 0 0.00323268 
0 0 0.000102117 
0 0 0.00120264 
0 0 0.000414478 
0 0 0.000288995 
0 0 0.00031872 
0 0 0.000241264 
0 0 0.000222061 
0 0 0.000142365 
0 0 0.000283119 
0 0 0.000104123 
0 0 0.000525539 
0 0 0.00250611 
0 0 0.000440442 
0 0 0.000378304 
0 0 0.000156176 
0 0 6.08711e-05 
0 0 0.00010824 
0 0 0.000301992 
0 0 0.00010444 
0 0 0.00132797 
0 0 0.0250957 
0 0 0.000491781 
0 0 0.000301868 
0 0 0.000842276 
0 0 0.000388255 
0 0 0.000475286 
0 0 0.00775104 
0 0 0.000281995 
0 0 0.000259432 
0 0 8.43718e-05 
0 0 0.000202766 
0 0 3.73383e-05 
0 0 0.000134046 
0 0 0.016936 
0 0 6.80906e-07 
0 0 0.000267928 
0 0 0.000150728 
0 0 0.00364663 
0 0 0.000654943 
0 0 0.000510611 
0 0 0.000562605 
0 0 0.00248509 
0 0 0.000106394 
0 0 0.0135668 
0 0 0.00131336 
0 0 0.000252576 
0 0 0.000226569 
0 0 0.00537717 
0 0 9.56439e-06 
0 0 0.000269389 
0 0 0.000119102 
0 0 0.000276826 
0 0 0.000323602 
0 0 0.000109562 
0 0 9.42322e-05 
0 0 8.536e-05 
0 0 5.16387e-05 
0 0 1.0517e-05 
0 0 0.0266388 
0 0 8.04681e-05 
0 0 0.000839028 
0 0 0.0195227 
0 0 0.0504043 
0 0 0.00987546 
0 0 0.00403631 
0 0 0.000105266 
0 0 0.000443631 
0 0 0.000435034 
0 0 5.92753e-05 
0 0 0.000164424 
0 0 5.2954e-05 
0 0 7.39942e-05 
0 0 0.000189478 
0 0 0.00790431 
0 0 0.000130043 
0 0 0.00682336 
0 0 0.00458453 
0 0 0.00797609 
0 0 8.22343e-05 
0 0 7.36386e-05 
0 0 0.000104592 
0 0 1.76355e-05 
0 0 0.000368407 
0 0 0.00021743 
0 0 3.9047e-05 
0 0 0.0286504 
0 0 0.0060469 
0 0 9.0235e-05 
0 0 0.000394616 
0 0 4.76084e-05 
0 0 3.63473e-05 
0 0 4.00554e-05 
0 0 2.34084e-05 
0 0 0.000305729 
0 0 0.00711172 
0 0 0.0433179 
0 0 1.974e-05 
0 0 5.16477e-05 
0 0 2.82279e-05 
0 0 4.41682e-05 
0 0 2.63192e-05 
0 0 0.000375639 
0 0 0.000222906 
0 0 8.28203e-05 
0 0 3.27846e-05 
0 0 4.00174e-07 
0 0 0.00924289 
0 0 2.00135e-05 
0 0 0 
0 0 1.7713e-05 
0 0 0.000373109 
0 0 8.15617e-05 
0 0 0.000188035 
0 0 5.8617e-06 
0 0 0.000541929 
0 0 6.09956e-06 
0 0 6.66411e-06 
0 0 2.4228e-06 
0 0 2.84584e-06 
0 0 1.09069e-05 
0 0 8.78815e-06 
0 0 0.000440462 
0 0 4.03469e-06 
0 0 0.000969519 
0 0 4.2986e-05 
0 0 1.99804e-08 
0 0 7.76047e-07 
0 0 4.15901e-06 
0 0 1.69491e-05 
0 0 2.75815e-06 
0 0 0.00141257 
0 0 2.93369e-05 
0 0 2.82392e-06 
</DataArray>
<DataArray type="Float32" Name="u" NumberOfComponents="3">
-0.210542 0.116858 0 
0.845482 0.236255 0 
0.354662 0.758435 0 
-0.284385 0.83695 0 
-0.782923 0.180062 0 
-0.604866 -0.555331 0 
-0.263801 -0.866069 0 
0.434567 -0.679938 0 
0.914969 -0.0404517 0 
1.11839 -0.73443 0 
1.29885 0.0213248 0 
-0.243537 0.714061 0 
0.932952 -0.572196 0 
1.04873 -0.734302 0 
1.30726 0.188723 0 
0.878415 0.920336 0 
1.00484 0.41012 0 
-0.40065 1.03333 0 
0.0122606 1.27772 0 
-0.126909 1.32332 0 
-0.931183 0.887055 0 
-0.177656 -0.668116 0 
0.586051 0.184439 0 
-0.556663 -0.950515 0 
-0.974905 -0.847129 0 
-0.914918 -0.968035 0 
-0.0747085 -1.27451 0 
-0.939812 0.587613 0 
-1.13177 0.700114 0 
-1.28316 0.19151 0 
0.493901 -0.895602 0 
0.562125 1.02177 0 
-1.1818 0.0382861 0 
-0.201896 -0.357493 0 
0.450998 -1.28155 0 
-1.00144 -0.985371 0 
-1.32442 -0.407309 0 
-1.40571 0.102835 0 
-1.40361 -0.0942344 0 
0.509548 1.28428 0 
1.09516 0.88646 0 
0.966927 1.02173 0 
0.50776 -1.20601 0 
-0.0671686 1.40534 0 
-0.469146 -1.21297 0 
-0.801748 -0.78628 0 
-1.31807 0.406863 0 
-0.917304 1.07102 0 
-1.02559 0.963188 0 
0.920594 -1.04479 0 
1.31792 0.440327 0 
-0.169938 1.29076 0 
0.105674 -1.11364 0 
0.0321752 -1.40584 0 
0.916165 -1.07027 0 
1.1962 -0.117875 0 
0.882985 -1.09792 0 
1.029 -0.956772 0 
0.593464 1.16968 0 
-1.04985 -0.642202 0 
-0.0402439 1.40895 0 
-0.082957 1.40272 0 
0.463198 -0.0915451 0 
-0.941813 -1.04647 0 
-0.153946 -1.4009 0 
-1.01074 -0.983033 0 
1.40673 0.0637789 0 
1.40462 0.047605 0 
0.763284 -0.573347 0 
0.0352105 -0.214333 0 
1.39794 0.119506 0 
0.154819 0.238521 0 
-0.48792 -1.26723 0 
-0.520169 -1.30207 0 
0.492928 1.12815 0 
0.194795 0.530003 0 
-1.34812 0.373349 0 
0.323997 -1.20122 0 
-0.415212 1.2643 0 
-0.184633 -1.38731 0 
0.804695 0.801238 0 
0.88662 -1.08643 0 
1.24733 -0.650597 0 
0.581756 1.27531 0 
-1.02252 0.183636 0 
-1.10162 -0.844038 0 
0.759003 1.1863 0 
1.18522 -0.758353 0 
1.2653 0.595088 0 
-0.55232 1.2963 0 
1.00377 0.946134 0 
-0.163632 -0.490913 0 
-0.0783103 1.3784 0 
-0.836111 0.540082 0 
-1.38393 0.273747 0 
-1.38828 0.051921 0 
1.29136 -0.194674 0 
-0.948362 1.02228 0 
0.817713 -1.10062 0 
0.898575 -1.0074 0 
1.21566 0.587317 0 
1.12398 0.709859 0 
-1.39783 0.0937234 0 
1.38053 0.0373014 0 
-0.164471 -1.36629 0 
0.212714 -1.39027 0 
0.839865 1.12243 0 
-0.476623 -1.31558 0 
-0.780508 -0.577033 0 
-0.0763298 1.36963 0 
0.744105 0.726912 0 
-1.28973 0.316167 0 
-1.26776 0.463155 0 
-0.964129 0.963582 0 
-1.00552 0.902216 0 
-0.85398 0.955686 0 
0.765357 1.12986 0 
-0.441112 -1.2791 0 
-0.322358 -1.28527 0 
-1.22501 -0.564678 0 
-1.15084 -0.645836 0 
-0.758745 1.14365 0 
1.3901 0.128822 0 
-1.34626 -0.211214 0 
0.16159 -1.40109 0 
0.48449 -1.3238 0 
-0.248615 -1.27301 0 
0.118689 -1.30946 0 
1.39212 0.0845036 0 
1.33844 0.15333 0 
1.0606 -0.830969 0 
0.166332 -1.34129 0 
0.350464 1.31211 0 
-1.31581 -0.143038 0 
-0.950877 -1.00969 0 
-0.985967 0.852291 0 
-0.267102 1.33457 0 
1.24655 -0.625721 0 
1.12809 -0.787602 0 
0.524806 1.17719 0 
-1.10531 0.862441 0 
0.818105 1.02284 0 
0.197387 -1.25916 0 
1.36233 -0.109357 0 
1.30126 0.0658687 0 
0.212871 -1.37254 0 
0.899068 1.0536 0 
-1.37303 -0.210892 0 
-0.954391 -0.434117 0 
-1.37742 0.131061 0 
1.25282 -0.626251 0 
0.878408 1.07254 0 
-1.26932 -0.569445 0 
1.2869 0.471107 0 
1.03896 -0.794381 0 
1.05392 -0.696425 0 
-0.775284 -1.09179 0 
1.37233 0.184909 0 
-0.0870275 -1.38564 0 
0.674922 -1.19006 0 
-0.528124 1.2673 0 
-0.455614 1.32649 0 
1.23098 0.375599 0 
-1.02911 0.948983 0 
-1.29861 -0.548243 0 
0.244754 1.33668 0 
1.05685 0.709778 0 
0.147725 1.29118 0 
-1.10882 -0.633477 0 
-0.94947 -0.970119 0 
-0.0203232 1.39731 0 
1.36863 -0.31339 0 
-0.743791 -1.08194 0 
-0.53708 1.29924 0 
0.97657 0.936706 0 
-0.248733 1.25342 0 
-0.360826 1.21496 0 
-0.112368 1.08847 0 
0.445537 -1.2517 0 
1.29838 0.536824 0 
-1.27249 -0.60827 0 
-0.9956 0.818542 0 
0.772027 1.04695 0 
0.454009 -1.30228 0 
1.09332 0.553599 0 
0.988779 0.656819 0 
-1.14292 0.497442 0 
-1.18789 0.30977 0 
-0.54675 1.17036 0 
0.380746 -1.23084 0 
0.309332 -1.14815 0 
0.473154 -1.07189 0 
-1.15295 0.256938 0 
0.648013 -1.01572 0 
0.434646 1.18265 0 
-0.404487 -1.14529 0 
-0.265415 -1.14006 0 
0.672325 1.2257 0 
0.407925 -1.13653 0 
1.21677 -0.599275 0 
1.13644 -0.552803 0 
1.19569 -0.354396 0 
-0.286197 -1.19782 0 
-1.22332 -0.0358539 0 
-0.795913 -0.871603 0 
-0.625786 -1.00389 0 
1.19635 -0.0558098 0 
-1.01294 0.529344 0 
-1.02192 0.738893 0 
-1.21209 0.625855 0 
-1.29269 -0.208741 0 
0.766222 -0.959753 0 
0.750587 0.928277 0 
0.184835 1.1681 0 
-1.03995 -0.546692 0 
-0.924119 -0.80291 0 
-0.487834 1.11572 0 
1.28615 -0.456248 0 
-0.525654 1.06766 0 
0.0954552 1.28579 0 
-0.539355 1.05523 0 
0.581382 1.23443 0 
0.0421717 1.24144 0 
0.61255 -1.10334 0 
0.262479 1.37313 0 
-0.709114 -1.06434 0 
-1.21842 -0.253277 0 
1.13735 0.278335 0 
1.19328 -0.253774 0 
-0.220383 -1.10627 0 
-0.0137655 -1.1461 0 
0.685836 -0.269577 0 
1.14064 -0.232847 0 
-0.89629 0.777479 0 
-1.13408 -0.275132 0 
-0.549083 -1.29823 0 
0.471762 -1.20717 0 
0.97637 0.783059 0 
1.24297 -0.411636 0 
0.635652 -1.22389 0 
1.18386 -0.0028794 0 
-0.600988 1.0789 0 
-1.21528 0.677185 0 
0.380733 1.18811 0 
-1.17364 0.180957 0 
-1.14814 0.812336 0 
0.946903 0.727549 0 
-1.03648 -0.691169 0 
-1.07023 -0.353297 0 
0.839946 -0.849074 0 
-0.66417 -1.06279 0 
-0.198132 -1.22018 0 
-1.03207 0.479843 0 
-0.577126 -1.01691 0 
-0.958793 0.704981 0 
0.904634 0.681592 0 
-0.335168 -1.151 0 
-0.651983 0.916567 0 
-0.822128 1.07273 0 
-0.00326945 0.963959 0 
0.0226854 -0.703597 0 
-0.728294 1.07233 0 
0.388634 1.34057 0 
0.969823 -0.666621 0 
-0.104133 -1.31926 0 
-1.2147 -0.344866 0 
-0.154095 -1.17787 0 
0.659002 0.986442 0 
0.567214 0.936087 0 
1.11757 0.331519 0 
0.892156 0.777708 0 
1.32824 -0.440501 0 
0.293208 1.17273 0 
-0.612414 -1.26359 0 
-1.31049 -0.376578 0 
0.423399 1.24074 0 
-1.13564 -0.0422244 0 
0.0897833 -1.18362 0 
-0.209286 1.14451 0 
-0.961225 0.399635 0 
0.840646 -0.993224 0 
1.23833 0.0858121 0 
-0.745708 -0.878716 0 
0.388456 -0.942933 0 
1.18225 -0.64996 0 
-0.00363002 1.20253 0 
-1.2472 0.130427 0 
0.13869 1.10679 0 
-1.0218 0.239029 0 
-0.937574 -0.572791 0 
-0.712762 0.828262 0 
1.26402 -0.254827 0 
-1.20459 -0.174556 0 
-0.43869 0.244378 0 
0.0998558 -1.07537 0 
-0.668581 1.11616 0 
1.1486 0.0779673 0 
1.04998 0.411762 0 
1.01053 -0.489265 0 
-1.29931 0.549162 0 
-0.599547 -1.09775 0 
-0.686155 0.999668 0 
0.385507 1.05155 0 
-0.786479 0.958488 0 
1.06776 -0.510374 0 
-1.11076 -0.114173 0 
-0.227254 1.05072 0 
-0.403108 1.02448 0 
-1.03927 -0.814776 0 
-0.0921207 -1.27043 0 
-1.3364 0.193321 0 
0.0756126 1.09421 0 
-1.06294 -0.910687 0 
0.811185 -0.790345 0 
-0.930894 0.661108 0 
-1.00925 0.349636 0 
1.0154 -0.392407 0 
0.557039 0.99734 0 
0.422617 -0.997652 0 
0.11323 1.40403 0 
-0.0061567 1.14943 0 
-0.661853 1.18341 0 
0.682287 1.04994 0 
0.552708 -0.91196 0 
0.662964 -0.797141 0 
-1.01281 -0.400668 0 
1.27431 -0.126429 0 
-1.05707 0.0884954 0 
0.804062 -0.991736 0 
-0.638868 -1.15983 0 
-0.60888 -0.0866104 0 
</DataArray>
<DataArray type="Float32" Name="err" NumberOfComponents="3">
0.429213 -0.232935 0 
-1.31645 -0.376008 0 
-0.571517 -1.21994 0 
0.436063 -1.29788 0 
1.28493 -0.28726 0 
0.985103 0.906999 0 
0.413137 1.32064 0 
-0.702057 1.11453 0 
-1.38222 0.0528801 0 
-0.835475 0.544396 0 
-1.10026 -0.0256684 0 
0.408546 -1.20878 0 
-1.17065 0.714503 0 
-0.941268 0.655602 0 
-1.03102 -0.155567 0 
-0.799833 -0.839133 0 
-1.27374 -0.527033 0 
0.487772 -1.27409 0 
-0.016571 -1.14962 0 
0.0918691 -1.01707 0 
0.820987 -0.784965 0 
0.323045 1.17404 0 
-1.06429 -0.341959 0 
0.69643 1.17991 0 
0.841187 0.736395 0 
0.692714 0.735611 0 
0.0790352 1.14981 0 
1.15705 -0.721037 0 
0.870381 -0.537538 0 
1.09925 -0.156693 0 
-0.665077 1.22498 0 
-0.636618 -1.15386 0 
1.30035 -0.0324639 0 
0.403145 0.702574 0 
-0.300299 0.877255 0 
0.460573 0.456335 0 
0.764034 0.243651 0 
0.481056 -0.0304035 0 
0.440711 0.0350826 0 
-0.303197 -0.757256 0 
-0.39099 -0.317042 0 
-0.310653 -0.327908 0 
-0.412409 1.00057 0 
0.0254394 -0.619903 0 
0.402455 1.02039 0 
0.966291 0.951088 0 
0.804268 -0.244108 0 
0.333932 -0.394099 0 
0.327026 -0.309574 0 
-0.50264 0.571506 0 
-0.724822 -0.246215 0 
0.137153 -1.08712 0 
-0.114829 1.35301 0 
-0.00362398 0.435069 0 
-0.383751 0.449066 0 
-1.27117 0.11684 0 
-0.309241 0.385641 0 
-0.322982 0.298631 0 
-0.485269 -0.951758 0 
1.04952 0.650838 0 
0.0110052 -0.515374 0 
0.0221495 -0.433321 0 
-0.8837 0.171473 0 
0.306415 0.341846 0 
0.0718111 0.585575 0 
0.392595 0.384856 0 
-0.556699 -0.0299738 0 
-0.45142 -0.0195021 0 
-1.1118 0.83517 0 
-0.063032 0.436748 0 
-0.422 -0.0398533 0 
-0.308488 -0.480963 0 
0.337704 0.858841 0 
0.151044 0.36704 0 
-0.49647 -1.12966 0 
-0.3626 -0.986862 0 
0.697312 -0.189076 0 
-0.305701 1.17595 0 
0.312363 -0.969786 0 
0.101336 0.699796 0 
-0.952539 -0.951026 0 
-0.431814 0.530891 0 
-0.547242 0.280478 0 
-0.283525 -0.616657 0 
1.37112 -0.237546 0 
0.619216 0.480385 0 
-0.2581 -0.401453 0 
-0.397745 0.250668 0 
-0.635241 -0.30165 0 
0.188618 -0.452952 0 
-0.60015 -0.566403 0 
0.319638 0.931279 0 
0.041831 -0.823191 0 
1.17312 -0.754911 0 
0.513582 -0.097636 0 
0.785734 -0.0225667 0 
-1.07344 0.15404 0 
0.509109 -0.552893 0 
-0.161733 0.218692 0 
-0.147443 0.164827 0 
-0.193842 -0.0945138 0 
-0.15023 -0.0952332 0 
0.70284 -0.0410315 0 
-0.815126 -0.0282035 0 
0.110466 0.84099 0 
-0.0895279 0.635208 0 
-0.240925 -0.32082 0 
0.132433 0.352828 0 
1.12285 0.836538 0 
0.0123148 -0.269342 0 
-0.996331 -0.976698 0 
0.17561 -0.0410833 0 
0.206281 -0.0739106 0 
0.174994 -0.177114 0 
0.164244 -0.148959 0 
0.0810212 -0.0927209 0 
-0.139514 -0.204739 0 
0.074724 0.205921 0 
0.0448889 0.164359 0 
0.191431 0.0925858 0 
0.14093 0.0826977 0 
0.149087 -0.229457 0 
-0.369359 -0.037666 0 
0.241379 0.0422475 0 
-0.0570374 0.556547 0 
-0.166503 0.468968 0 
0.0290914 0.131526 0 
-0.010854 0.158345 0 
-0.728731 -0.0498082 0 
-0.210386 -0.0264579 0 
-0.171238 0.131933 0 
-0.0230347 0.21861 0 
-0.0616436 -0.224682 0 
0.170459 0.0220529 0 
0.216031 0.230892 0 
0.110638 -0.0968073 0 
0.0447271 -0.237901 0 
-0.662081 0.326935 0 
-0.236966 0.162531 0 
-0.0521194 -0.114976 0 
0.317261 -0.248777 0 
-0.09389 -0.116773 0 
-0.015027 0.113595 0 
-0.258156 0.0172466 0 
-0.143521 -0.0094087 0 
-0.0453861 0.324959 0 
-0.516561 -0.604863 0 
0.323927 0.0548246 0 
1.26344 0.584832 0 
0.307674 -0.0256824 0 
-0.36282 0.177063 0 
-0.200849 -0.24445 0 
0.304501 0.142053 0 
-0.24883 -0.092597 0 
-0.122816 0.0918746 0 
-0.089934 0.0573729 0 
0.111782 0.156064 0 
-0.31262 -0.0450174 0 
0.0256205 0.322035 0 
-0.434389 0.775896 0 
0.102757 -0.254551 0 
0.215968 -0.643586 0 
-0.119038 -0.0373721 0 
0.521873 -0.483928 0 
0.534046 0.232702 0 
-0.0441571 -0.231004 0 
-0.959124 -0.647846 0 
-0.0173352 -0.137948 0 
0.0980442 0.0590441 0 
0.159217 0.164192 0 
0.0023601 -0.373375 0 
-0.426085 0.0926429 0 
0.087152 0.125186 0 
0.241257 -0.595655 0 
-0.159601 -0.152864 0 
0.0208844 -0.115609 0 
0.0288986 -0.104414 0 
0.134977 -1.36622 0 
-0.0582487 0.171252 0 
-0.404365 -0.169237 0 
0.487085 0.239662 0 
0.100621 -0.0836546 0 
-0.0828331 -0.111602 0 
-0.0934186 0.278577 0 
-0.0667717 -0.0341362 0 
-0.0453388 -0.0301928 0 
0.086068 -0.0367314 0 
0.0781596 -0.0190516 0 
0.0541452 -0.121029 0 
-0.0359707 0.124111 0 
-0.0135991 0.0568123 0 
-0.0197609 0.0473173 0 
0.0544846 -0.0108747 0 
-0.0358017 0.0570287 0 
-0.0351992 -0.0934145 0 
0.0247453 0.0635832 0 
0.012871 0.0459831 0 
-0.180959 -0.327458 0 
-0.0216114 0.0645887 0 
-0.212076 0.101017 0 
-0.0968258 0.0446616 0 
-0.0893601 0.0240736 0 
0.0208196 0.0760502 0 
0.0769567 0.00448496 0 
0.0341291 0.0376437 0 
0.0282903 0.0435428 0 
-0.0609714 0.00117215 0 
0.0363434 -0.018677 0 
0.0848226 -0.0617698 0 
0.223865 -0.115 0 
0.149706 0.0276564 0 
-0.0506101 0.0633706 0 
-0.0364519 -0.0447256 0 
-0.0092384 -0.0525788 0 
0.0430866 0.0248135 0 
0.0548492 0.0490963 0 
0.0277508 -0.0677059 0 
-0.241286 0.0817884 0 
0.565664 -1.16146 0 
-0.0110335 -0.127379 0 
0.0243581 -0.0508951 0 
-0.106503 -0.223556 0 
-0.00435186 -0.0871733 0 
-0.0503846 0.092817 0 
-0.137239 -0.699613 0 
0.0644063 0.0949242 0 
0.0873087 0.0209678 0 
-0.0463759 -0.01211 0 
-0.0727816 0.0133487 0 
0.00830757 0.0322024 0 
0.00240953 0.0397728 0 
-1.16958 0.456021 0 
-0.0460659 0.00766207 0 
0.0434936 -0.0384812 0 
0.0458812 0.0133139 0 
0.227762 0.526667 0 
-0.0483666 0.12928 0 
-0.0722652 -0.0579183 0 
-0.147098 0.0456797 0 
-0.134123 0.263136 0 
-0.0542071 -0.00135191 0 
0.593986 -1.0771 0 
0.298357 -0.165841 0 
-0.0283933 -0.085815 0 
0.057792 -0.00741924 0 
0.527669 -0.374011 0 
-0.0458223 -0.0351917 0 
0.0724369 0.0507168 0 
0.0313296 0.0122819 0 
-0.0439636 0.0437065 0 
0.0502078 0.0781903 0 
0.0158685 0.0807373 0 
0.0357898 -0.0161665 0 
0.0238404 0.0396531 0 
0.0480613 -0.0356922 0 
-0.0272442 -0.0205258 0 
0.367318 1.22643 0 
0.0191681 -0.0286845 0 
0.13367 -0.177919 0 
-0.000431962 -1.39667 0 
-0.0263352 1.22731 0 
0.62101 -0.9224 0 
-0.10265 -0.34706 0 
-0.0447441 0.0292838 0 
0.0171424 0.168221 0 
0.0986227 0.0311167 0 
0.00951329 0.0548961 0 
-0.0304211 -0.0449906 0 
-0.012782 -0.0206348 0 
-0.0436962 -0.0135838 0 
-0.0399112 -0.0347002 0 
-0.664369 0.214258 0 
-0.0168329 -0.0638655 0 
0.290812 0.590564 0 
0.868018 0.258684 0 
-0.348821 -1.01203 0 
0.0376164 0.00307244 0 
-0.00216465 0.0564333 0 
0.00701251 -0.0458183 0 
0.0155153 -0.00597136 0 
-0.0939764 0.110798 0 
-0.0862529 -0.00758128 0 
0.0258898 0.0303935 0 
-0.520853 1.29379 0 
-0.842555 0.457836 0 
-0.001077 -0.063377 0 
0.0982137 -0.00823788 0 
-0.00447714 -0.0296261 0 
0.017528 -0.00326395 0 
0.0207967 0.0142007 0 
0.0165846 -0.0203883 0 
-0.127859 0.0230506 0 
1.24195 0.190633 0 
0.833789 -0.458919 0 
-0.000700162 0.0225851 0 
0.071948 -0.124152 0 
-0.0407152 -0.00391407 0 
-0.0303785 -0.0122782 0 
-0.0307989 0.0134283 0 
0.520092 -0.217844 0 
0.0450424 0.0792435 0 
0.0389045 -0.0591629 0 
-0.0110576 -0.0288022 0 
0.0549669 -0.0690548 0 
-1.17472 0.555619 0 
0.0312302 0.00488053 0 
0.00349723 -0.0209902 0 
0.00896139 -0.0259303 0 
0.12762 0.102711 0 
0.0112538 0.111553 0 
0.21765 -0.0287469 0 
-0.0025332 -0.0252629 0 
0.28799 0.250225 0 
-0.0270837 0.0257104 0 
0.0328553 -0.0235436 0 
0.0203422 -0.00638783 0 
-0.0233584 0.00765894 0 
-0.0185217 -0.0324942 0 
-0.00873004 0.0225929 0 
-0.0420901 -0.482242 0 
-0.000838866 -0.0406803 0 
0.452805 -0.819745 0 
-0.0511601 -0.077948 0 
-0.0105525 0.018085 0 
-0.0102312 0.0121973 0 
0.0214164 0.0101563 0 
-0.119861 0.0094649 0 
0.019546 -0.000512892 0 
-0.725133 0.89923 0 
0.0827203 0.146302 0 
1.10873 0.166098 0 
</DataArray>
<DataArray type="Float32" Name="rel_err" NumberOfComponents="1">
0.66976
0.60931
0.616715
0.60768
0.621059
0.61988
0.604499
0.620113
0.601645
0.427031
0.458648
0.628424
0.556173
0.472569
0.441165
0.476764
0.559495
0.551767
0.473628
0.434449
0.468991
0.637862
0.645328
0.554336
0.463985
0.431365
0.474448
0.55157
0.434612
0.461168
0.576787
0.530523
0.523832
0.663637
0.405647
0.315766
0.366594
0.254838
0.239124
0.371217
0.263225
0.243053
0.452673
0.306026
0.457531
0.546974
0.378614
0.268101
0.242459
0.353405
0.355216
0.45701
0.548306
0.236298
0.295417
0.515038
0.259722
0.238424
0.448887
0.500865
0.267788
0.23593
0.655948
0.245895
0.29509
0.280535
0.283622
0.243284
0.592937
0.670167
0.23202
0.667709
0.404625
0.220623
0.500569
0.650585
0.340581
0.494087
0.433631
0.335655
0.542403
0.327961
0.304161
0.326235
0.572556
0.360908
0.25311
0.250449
0.334634
0.25828
0.374316
0.655505
0.373834
0.583596
0.270379
0.361358
0.453669
0.350224
0.165537
0.140764
0.137733
0.118012
0.334461
0.371301
0.381333
0.31324
0.222515
0.212186
0.590593
0.164267
0.572877
0.119576
0.139672
0.154448
0.140989
0.087653
0.153652
0.139346
0.113933
0.136179
0.11018
0.166235
0.210078
0.152418
0.284018
0.260918
0.0940857
0.107713
0.343716
0.135993
0.138257
0.139892
0.146431
0.114938
0.185654
0.101367
0.151002
0.346152
0.172771
0.0892073
0.223345
0.102656
0.0824888
0.159178
0.0994158
0.191093
0.364791
0.191272
0.570423
0.182433
0.22375
0.185808
0.194541
0.162294
0.104965
0.0778718
0.125384
0.185729
0.188766
0.393924
0.166628
0.326153
0.088376
0.337053
0.292425
0.147537
0.476208
0.0966426
0.0822533
0.144194
0.210851
0.236969
0.104086
0.313719
0.140389
0.0841956
0.07875
0.556469
0.119832
0.237804
0.277927
0.0921676
0.0965295
0.175631
0.0576646
0.0438751
0.0698318
0.0615022
0.0930878
0.0911543
0.046828
0.0419298
0.0449224
0.0529298
0.0734115
0.0531865
0.039196
0.211122
0.0533928
0.147625
0.0778109
0.0690834
0.0601737
0.0592568
0.0412722
0.0420496
0.0484523
0.0345181
0.0768163
0.155758
0.104157
0.0619464
0.0461048
0.0431909
0.0406026
0.0567213
0.0566848
0.157322
0.520518
0.0902188
0.0454485
0.153605
0.0656538
0.0772246
0.33774
0.0823108
0.0672988
0.0393253
0.0571865
0.0286396
0.0335972
0.63011
0.0385674
0.0466608
0.0393295
0.289309
0.0962497
0.0688966
0.105256
0.176384
0.0437971
0.498993
0.19702
0.0675556
0.0467719
0.315004
0.0461508
0.0662768
0.0289935
0.0493442
0.069027
0.0624105
0.0333535
0.0380644
0.0478943
0.0292352
0.516431
0.0297593
0.141377
0.591652
0.635554
0.461738