<VTKFile type="PolyData" version="0.1" byte_order="LittleEndian">
<PolyData>
<Piece NumberOfPoints="1">
<Points>
<DataArray type="Float32" Name="Points" NumberOfComponents="3">
0 0 0 
</DataArray>
</Points>
<PointData>
<DataArray type="Float32" Name="G" NumberOfComponents="3">
0 0 6.28319 
</DataArray>
<DataArray type="Float32" Name="u" NumberOfComponents="3">
0 0 0 
</DataArray>
<DataArray type="Float32" Name="err" NumberOfComponents="3">
nan nan nan 
</DataArray>
<DataArray type="Float32" Name="rel_err" NumberOfComponents="1">
nan
</DataArray>
<DataArray type="Float32" Name="u_true" NumberOfComponents="3">
nan nan nan 
</DataArray>
</PointData>
</Piece>
</PolyData>
</VTKFile>
