<VTKFile type="PolyData" version="0.1" byte_order="LittleEndian">
<PolyData>
<Piece NumberOfPoints="395">
<Points>
<DataArray type="Float32" Name="Points" NumberOfComponents="3">
-0.0413074 0.0438598 0 
0.178737 -0.0832121 0 
0.159079 0.0733191 0 
0.0693887 0.185166 0 
-0.101594 0.142216 0 
-0.186804 -0.000569777 0 
-0.164357 -0.104474 0 
0.00109787 -0.179555 0 
0.146186 -0.137774 0 
0.0571 -0.371049 0 
0.261213 -0.247562 0 
0.0460743 0.159166 0 
0.09323 -0.234604 0 
0.074824 -0.32542 0 
0.296235 -0.229628 0 
0.341497 0.0193173 0 
0.253786 -0.085063 0 
0.0856802 0.246644 0 
0.251584 0.235602 0 
0.252307 0.277893 0 
0.00574628 0.34343 0 
-0.10485 -0.0929267 0 
0.123372 -0.0406433 0 
-0.220471 -0.137923 0 
-0.353093 -0.000443932 0 
-0.380846 -0.00540181 0 
-0.248999 -0.237991 0 
-0.100017 0.239095 0 
-0.0584064 0.36667 0 
-0.20858 0.286543 0 
-0.0490669 -0.235307 0 
0.270917 0.106376 0 
-0.221932 0.198684 0 
-0.0632533 -0.0538434 0 
-0.194348 -0.349383 0 
-0.464414 0.0853759 0 
-0.350296 0.248989 0 
-0.246017 0.462265 0 
-0.30595 0.441902 0 
0.414479 0.0954125 0 
0.483142 -0.175152 0 
0.516601 -0.11475 0 
-0.140073 -0.331085 0 
0.376489 0.294799 0 
-0.32178 -0.150023 0 
-0.28521 -0.0258215 0 
-0.137786 0.395856 0 
0.159349 0.483638 0 
0.118072 0.516989 0 
-0.0851919 -0.42789 0 
0.368046 -0.242941 0 
0.220106 0.28003 0 
-0.148592 -0.223711 0 
-0.454399 -0.28485 0 
-0.135431 -0.465812 0 
0.215491 -0.216709 0 
-0.178643 -0.483813 0 
-0.111381 -0.523172 0 
0.352243 0.0857839 0 
-0.323034 0.0433243 0 
0.421537 0.286241 0 
0.448646 0.297438 0 
0.0704248 -0.06105 0 
-0.519205 0.099187 0 
-0.424785 -0.23751 0 
-0.487279 0.115093 0 
0.281245 -0.409541 0 
0.281771 -0.450694 0 
0.046217 -0.216472 0 
0.00644838 -0.0209551 0 
0.305178 -0.446902 0 
0.0140515 0.048538 0 
-0.375679 -0.130612 0 
-0.544939 -0.0770907 0 
0.29579 0.12155 0 
0.0775544 0.0740504 0 
-0.144487 0.425621 0 
-0.141231 -0.288939 0 
0.181287 0.324968 0 
-0.401703 -0.208828 0 
0.277587 0.05079 0 
-0.11968 -0.44002 0 
0.0626268 -0.473338 0 
0.450479 0.100874 0 
-0.162539 0.178929 0 
-0.424677 0.096461 0 
0.521736 -0.00419733 0 
0.00128159 -0.523873 0 
0.402392 -0.215854 0 
0.30391 0.417914 0 
0.418029 -0.0698577 0 
-0.0695194 -0.0757399 0 
0.325313 0.269532 0 
-0.0852123 0.209599 0 
-0.194283 0.470539 0 
-0.237853 0.361319 0 
0.215546 -0.28969 0 
0.0912035 0.433746 0 
-0.283043 -0.534935 0 
-0.262674 -0.577074 0 
0.479318 -0.419523 0 
0.53705 -0.387027 0 
-0.243412 0.388255 0 
0.279741 -0.323199 0 
-0.357992 -0.212736 0 
-0.341351 -0.325271 0 
0.543926 -0.0671831 0 
-0.551158 -0.0883461 0 
-0.22327 0.0331653 0 
0.53737 0.282692 0 
0.245634 0.0512523 0 
-0.0875425 0.656646 0 
-0.0307626 0.635402 0 
0.219759 0.577076 0 
0.202682 0.600623 0 
0.346155 0.620907 0 
0.608772 -0.106029 0 
-0.633135 -0.0463535 0 
-0.662257 -0.0851698 0 
-0.475667 0.428151 0 
-0.52166 0.427525 0 
0.315253 0.515331 0 
0.310882 -0.467853 0 
-0.339976 0.520973 0 
-0.37818 -0.32014 0 
-0.311598 -0.406944 0 
-0.689476 -0.10721 0 
-0.610571 -0.293367 0 
0.290133 -0.342676 0 
0.318539 -0.556233 0 
-0.161969 -0.617213 0 
-0.548975 -0.318523 0 
0.619255 0.0915416 0 
-0.308254 0.593531 0 
-0.559906 0.163663 0 
0.244042 0.64395 0 
0.506359 0.360257 0 
0.0652111 -0.43888 0 
-0.0913012 -0.591552 0 
0.704232 -0.0565484 0 
0.0818218 0.541581 0 
0.649817 -0.214512 0 
-0.637064 -0.334226 0 
0.211358 -0.575816 0 
0.271636 -0.635512 0 
-0.469219 -0.340224 0 
0.433115 -0.0314176 0 
-0.342021 0.470256 0 
-0.227439 0.090667 0 
-0.209259 0.550901 0 
0.0314793 -0.546759 0 
0.568877 -0.125776 0 
-0.451127 0.356042 0 
0.430339 -0.429883 0 
-0.197355 -0.654867 0 
-0.189672 -0.705071 0 
-0.635293 0.147413 0 
0.331232 -0.483851 0 
-0.533985 -0.228099 0 
-0.120437 -0.378577 0 
0.40342 0.449304 0 
0.27339 0.3687 0 
0.421544 -0.569152 0 
0.068523 0.448065 0 
-0.408101 0.266787 0 
0.609107 0.140882 0 
0.335867 -0.0512747 0 
0.674285 0.165794 0 
-0.54091 0.473298 0 
-0.588873 0.218738 0 
0.49026 0.271667 0 
0.167917 -0.508951 0 
-0.661759 0.16419 0 
0.261448 0.390406 0 
0.585081 -0.242352 0 
0.618577 0.360508 0 
0.594886 0.416553 0 
0.139443 0.216506 0 
-0.496092 -0.437228 0 
0.423207 -0.32744 0 
-0.426161 0.260569 0 
0.241991 0.660857 0 
0.665184 -0.197689 0 
-0.415545 -0.424845 0 
0.530692 -0.556379 0 
0.607299 -0.529113 0 
0.0750169 0.742604 0 
-0.0321467 0.764023 0 
0.498437 0.493356 0 
-0.565624 -0.419609 0 
-0.689731 -0.407367 0 
-0.637905 -0.510872 0 
-0.0381505 0.80788 0 
-0.519903 -0.588872 0 
0.734977 -0.0233451 0 
-0.778085 0.0416457 0 
-0.820294 -0.0236683 0 
0.559631 0.000991883 0 
-0.635149 -0.458705 0 
-0.0255674 -0.626591 0 
-0.0936234 -0.72344 0 
0.0177771 -0.746373 0 
-0.76129 -0.0477507 0 
-0.244939 0.728806 0 
-0.721444 0.3736 0 
-0.775431 0.233389 0 
0.181467 -0.773941 0 
0.19856 0.82115 0 
0.224687 0.696649 0 
0.0336407 0.616233 0 
-0.338545 0.594952 0 
-0.432048 -0.629726 0 
0.732985 -0.317867 0 
0.804137 0.087216 0 
-0.554413 0.599773 0 
-0.651478 0.411842 0 
0.592682 0.498019 0 
0.0524898 -0.613366 0 
0.0751212 0.280643 0 
0.679523 0.188466 0 
0.595168 0.54206 0 
0.618845 -0.0114062 0 
0.724604 0.201506 0 
-0.495503 -0.537048 0 
0.406391 0.198362 0 
-0.693223 0.185023 0 
-0.367212 0.653519 0 
0.393258 -0.720262 0 
0.0635275 -0.770487 0 
-0.860398 -0.0323515 0 
-0.820427 -0.193523 0 
0.0773359 -0.131427 0 
0.0452828 -0.824897 0 
0.347985 0.724054 0 
-0.39266 0.7237 0 
-0.48167 -0.100778 0 
-0.524565 -0.458404 0 
0.620132 -0.410237 0 
0.0272213 -0.682553 0 
-0.356199 -0.475986 0 
0.212023 -0.779837 0 
0.0796055 0.301676 0 
0.0167162 0.573143 0 
0.747373 0.000248314 0 
-0.0943165 0.797332 0 
0.00877041 0.471952 0 
0.638802 -0.479634 0 
-0.585389 0.468191 0 
-0.454666 0.731969 0 
-0.39401 -0.691584 0 
-0.719521 0.184801 0 
-0.750809 -0.105246 0 
0.163233 0.833579 0 
-0.795353 0.210417 0 
0.284494 0.747668 0 
0.662197 -0.544253 0 
-0.240316 -0.190531 0 
0.568713 0.648188 0 
0.306616 0.552576 0 
0.128237 0.167584 0 
-0.0473625 -0.12896 0 
0.07863 0.339976 0 
0.551403 0.114872 0 
-0.269061 -0.766995 0 
-0.641441 -0.189624 0 
-0.412233 0.604702 0 
-0.796299 -0.11021 0 
0.764976 -0.254059 0 
0.846794 -0.286145 0 
0.427199 -0.706513 0 
0.672469 -0.44937 0 
0.129695 -0.435956 0 
0.783733 0.0290259 0 
-0.463191 -0.0742286 0 
-0.335372 0.227036 0 
0.338112 0.134497 0 
-0.234222 0.819021 0 
-0.757079 -0.270503 0 
0.749195 0.348445 0 
0.186091 0.927123 0 
-0.33855 -0.601315 0 
0.272695 -0.702162 0 
-0.753021 0.369508 0 
-0.0700807 -0.226709 0 
0.081507 -0.377613 0 
0.758946 0.2185 0 
-0.156998 0.722581 0 
0.868231 0.0902329 0 
0.0282387 0.93673 0 
-0.619396 0.638832 0 
0.535946 0.714996 0 
0.101963 -0.696853 0 
-0.259429 0.176339 0 
-0.0503142 0.0985037 0 
-0.865252 -0.271335 0 
0.433482 0.538296 0 
0.261394 -0.797509 0 
0.492994 -0.706819 0 
-0.185719 -0.844768 0 
-0.0952602 0.484725 0 
-0.731158 0.143877 0 
0.493882 0.602242 0 
0.862528 -0.104393 0 
0.414219 0.628103 0 
0.145943 -0.25122 0 
-0.285257 0.82307 0 
0.831756 0.373958 0 
0.733052 0.49758 0 
-0.579553 0.341816 0 
-0.697212 -0.183913 0 
-0.161485 0.615406 0 
0.880929 0.133285 0 
-0.520112 0.197907 0 
-0.435285 -0.7358 0 
0.309481 0.787219 0 
0.115181 0.91079 0 
-0.135475 -0.888214 0 
0.817732 -0.223124 0 
-0.737361 -0.520234 0 
0.463599 0.23659 0 
0.813734 0.208752 0 
0.145475 0.367212 0 
0.716687 -0.196628 0 
-0.672207 -0.627235 0 
-0.599824 -0.736441 0 
-0.50347 0.74442 0 
0.165529 -0.694269 0 
-0.112098 0.919 0 
-0.00978923 -0.328816 0 
-0.663819 0.0891182 0 
-0.107899 0.0569867 0 
-0.563267 -0.0105474 0 
0.0637793 -0.887591 0 
0.215461 0.457052 0 
-0.209036 0.676733 0 
0.5123 0.847273 0 
0.195494 0.726916 0 
-0.473286 -0.00991539 0 
-0.557882 -0.809772 0 
-0.406436 -0.849315 0 
-0.654123 0.639766 0 
-0.766835 0.574399 0 
-0.124865 0.276133 0 
-0.92482 0.208282 0 
-0.958039 0.0726756 0 
0.151078 -0.970559 0 
-0.46775 0.657061 0 
-0.349202 0.852406 0 
0.332948 -0.171838 0 
0.811497 0.532799 0 
0.741964 0.652708 0 
0.467844 0.663322 0 
-0.419266 0.37254 0 
0.916198 -0.052309 0 
0.505981 0.742762 0 
0.522258 -0.772248 0 
0.642309 -0.703923 0 
-0.848399 0.526085 0 
-0.891139 0.382523 0 
-0.843296 -0.316841 0 
-0.613532 0.521358 0 
0.118404 -0.6213 0 
0.787743 -0.41458 0 
0.13868 0.68769 0 
-0.290348 0.375391 0 
-0.909962 0.158342 0 
-0.386976 0.144395 0 
-0.626451 0.276269 0 
0.729015 -0.673762 0 
-0.789002 -0.384846 0 
-0.54982 0.803683 0 
-0.438036 0.456686 0 
0.392142 -0.832046 0 
0.18284 -0.326279 0 
0.204697 0.187914 0 
0.898035 0.213155 0 
0.541646 -0.706258 0 
0.691177 0.263943 0 
-0.635601 -0.557231 0 
0.933681 -0.0137008 0 
-0.586479 -0.105551 0 
0.3813 0.405331 0 
0.864962 -0.460192 0 
0.459012 -0.268745 0 
-0.408894 -0.900282 0 
-0.274079 -0.949619 0 
-0.110928 -0.822436 0 
0.145786 -0.873169 0 
0.729156 0.543866 0 
0.0126141 0.204631 0 
0.413573 0.813623 0 
0.594345 0.201928 0 
-0.156763 0.910407 0 
-0.267724 -0.342484 0 
0.330278 0.954031 0 
</DataArray>
</Points>
<PointData>
<DataArray type="Float32" Name="G" NumberOfComponents="3">
0 0 0.461027 
0 0 0.105202 
0 0 0.188736 
0 0 0.0904038 
0 0 0.163456 
0 0 0.145299 
0 0 0.115252 
0 0 0.218732 
0 0 0.132881 
0 0 0.0189042 
0 0 0.0268224 
0 0 0.194098 
0 0 0.0781516 
0 0 0.0369822 
0 0 0.0310979 
0 0 0.0558546 
0 0 0.0899568 
0 0 0.0753017 
0 0 0.0560754 
0 0 0.0133576 
0 0 0.0579622 
0 0 0.148573 
0 0 0.17562 
0 0 0.0642064 
0 0 0.0321695 
0 0 0.0276847 
0 0 0.0427605 
0 0 0.0843181 
0 0 0.0289104 
0 0 0.0477558 
0 0 0.051365 
0 0 0.0662999 
0 0 0.0623269 
0 0 0.137976 
0 0 0.0214954 
0 0 0.0186666 
0 0 0.0194718 
0 0 0.00874134 
0 0 0.00516363 
0 0 0.0222142 
0 0 0.00877562 
0 0 0.00845591 
0 0 0.039071 
0 0 0.00983695 
0 0 0.0496405 
0 0 0.0647807 
0 0 0.0244981 
0 0 0.0118937 
0 0 0.00504287 
0 0 0.0166101 
0 0 0.0198493 
0 0 0.019673 
0 0 0.0733075 
0 0 0.00499058 
0 0 0.00373932 
0 0 0.0636173 
0 0 0.00830325 
0 0 0.00400411 
0 0 0.0190122 
0 0 0.0542833 
0 0 0.00596613 
0 0 0.00267124 
0 0 0.128126 
0 0 0.00466625 
0 0 0.00864885 
0 0 0.00310244 
0 0 0.0128309 
0 0 0.00188841 
0 0 0.0609402 
0 0 0.152299 
0 0 0.00172778 
0 0 0.117133 
0 0 0.0102664 
0 0 0.00440195 
0 0 0.0217551 
0 0 0.0993964 
0 0 0.00521208 
0 0 0.0200075 
0 0 0.0279064 
0 0 0.00480643 
0 0 0.0354187 
0 0 0.00451248 
0 0 0.00866428 
0 0 0.00805919 
0 0 0.0533083 
0 0 0.0145009 
0 0 0.00886514 
0 0 0.00756988 
0 0 0.013839 
0 0 0.0128798 
0 0 0.0167552 
0 0 0.0877452 
0 0 0.00736208 
0 0 0.0637448 
0 0 0.00775668 
0 0 0.015961 
0 0 0.0281837 
0 0 0.00794461 
0 0 0.00261737 
0 0 0.00294349 
0 0 0.00276389 
0 0 0.00228004 
0 0 0.00311788 
0 0 0.0136247 
0 0 0.0123583 
0 0 0.0127201 
0 0 0.00153066 
0 0 0.00167176 
0 0 0.0383992 
0 0 0.00252775 
0 0 0.0501135 
0 0 0.00213321 
0 0 0.00195819 
0 0 0.00281946 
0 0 0.000762878 
0 0 0.00116367 
0 0 0.00125857 
0 0 0.0022271 
0 0 0.000721749 
0 0 0.00178354 
0 0 0.00205723 
0 0 0.00325663 
0 0 0.00106328 
0 0 0.00226698 
0 0 0.00473724 
0 0 0.00787159 
0 0 0.000345958 
0 0 0.000728355 
0 0 0.00810283 
0 0 0.00222275 
0 0 0.00204663 
0 0 0.00166919 
0 0 0.00342901 
0 0 0.0023348 
0 0 0.00197667 
0 0 0.00091237 
0 0 0.00500314 
0 0 0.00599853 
0 0 0.00325376 
0 0 0.00109753 
0 0 0.0060168 
0 0 0.0010545 
0 0 0.000832947 
0 0 0.00345402 
0 0 0.000414063 
0 0 0.00380574 
0 0 0.00851043 
0 0 0.00307641 
0 0 0.0880749 
0 0 0.00391734 
0 0 0.00283901 
0 0 0.00186227 
0 0 0.00291254 
0 0 0.00439651 
0 0 0.000483241 
0 0 0.000750479 
0 0 0.00168521 
0 0 0.00126196 
0 0 0.00534756 
0 0 0.0162505 
0 0 0.0033314 
0 0 0.00589911 
0 0 0.00179911 
0 0 0.00542511 
0 0 0.00834483 
0 0 0.00122431 
0 0 0.0343566 
0 0 0.000421848 
0 0 0.000404833 
0 0 0.0011888 
0 0 0.00127919 
0 0 0.00658538 
0 0 0.000555841 
0 0 0.0065677 
0 0 0.00185325 
0 0 0.000717126 
0 0 0.000960144 
0 0 0.0410277 
0 0 0.00198228 
0 0 0.00530491 
0 0 0.00403014 
0 0 0.000489493 
0 0 0.000596783 
0 0 0.00498756 
0 0 0.000525939 
0 0 0.000418708 
0 0 0.00100398 
0 0 0.000956437 
0 0 0.00114588 
0 0 0.000444625 
0 0 0.00032541 
0 0 0.000349009 
0 0 0.000179422 
0 0 0.000495074 
0 0 0.000623959 
0 0 0.0004871 
0 0 0.000123796 
0 0 0.00382895 
0 0 0.00022699 
0 0 0.00272192 
0 0 0.000654871 
0 0 0.00071785 
0 0 0.000485798 
0 0 0.000734239 
0 0 0.000483971 
0 0 0.000325872 
0 0 0.000373759 
0 0 0.000352368 
0 0 0.000472428 
0 0 0.00231246 
0 0 0.000500348 
0 0 0.00042106 
0 0 0.000402791 
0 0 0.000499226 
0 0 0.000484638 
0 0 0.000573844 
0 0 0.000349353 
0 0 0.00203358 
0 0 0.0221349 
0 0 0.00123248 
0 0 0.000352039 
0 0 0.000562661 
0 0 0.000347802 
0 0 0.000935672 
0 0 0.0155571 
0 0 0.000368323 
0 0 0.000346318 
0 0 0.00027964 
0 0 0.000291965 
0 0 5.10018e-05 
0 0 0.000246242 
0 0 0.0359396 
0 0 0.000133806 
0 0 0.000438649 
0 0 0.000343525 
0 0 0.00272423 
0 0 0.000535112 
0 0 0.000526223 
0 0 0.000565271 
0 0 0.00284931 
0 0 0.000145057 
0 0 0.0144423 
0 0 0.00259256 
0 0 0.000349361 
0 0 0.000347499 
0 0 0.0107614 
0 0 0.000137003 
0 0 0.00035334 
0 0 0.000175823 
0 0 0.000637566 
0 0 0.000348626 
0 0 0.000241606 
0 0 0.000168519 
0 0 0.000193113 
0 0 0.000154236 
0 0 9.4607e-05 
0 0 0.0361758 
0 0 0.000177627 
0 0 0.000874947 
0 0 0.0332606 
0 0 0.0377138 
0 0 0.00969328 
0 0 0.00545925 
0 0 0.000348721 
0 0 0.000809147 
0 0 0.00114583 
0 0 0.000142201 
0 0 0.000341351 
0 0 6.3488e-05 
0 0 7.39942e-05 
0 0 0.000299067 
0 0 0.0131651 
0 0 0.000202762 
0 0 0.00787718 
0 0 0.0141725 
0 0 0.0134746 
0 0 0.00015563 
0 0 0.000375197 
0 0 0.000395539 
0 0 2.35995e-05 
0 0 0.000585265 
0 0 0.00037084 
0 0 5.97846e-05 
0 0 0.0495272 
0 0 0.00830358 
0 0 0.000160124 
0 0 0.000436855 
0 0 6.40058e-05 
0 0 0.000104179 
0 0 0.000100968 
0 0 3.94557e-05 
0 0 0.000476286 
0 0 0.0250225 
0 0 0.0750597 
0 0 4.64566e-05 
0 0 0.00138811 
0 0 0.000148464 
0 0 0.000143647 
0 0 0.000171423 
0 0 0.00715476 
0 0 0.000658446 
0 0 0.000325875 
0 0 9.95831e-05 
0 0 0.000385655 
0 0 0.0251237 
0 0 0.000159371 
0 0 4.16147e-05 
0 0 9.54808e-05 
0 0 0.00116379 
0 0 0.000419269 
0 0 0.00050654 
0 0 5.12563e-05 
0 0 0.0036198 
0 0 2.63306e-05 
0 0 0.000142514 
0 0 4.61844e-05 
0 0 8.16471e-05 
0 0 0.000146552 
0 0 5.11166e-05 
0 0 0.00333686 
0 0 6.72651e-05 
0 0 0.00726186 
0 0 0.000366451 
0 0 3.41864e-05 
0 0 9.75296e-05 
0 0 2.00477e-05 
0 0 0.000830797 
0 0 0.000116286 
0 0 0.0409594 
0 0 0.00153627 
0 0 0.0768438 
0 0 0.00286712 
0 0 4.20018e-05 
0 0 0.00152765 
0 0 0.000122093 
0 0 3.48939e-05 
0 0 0.000106338 
0 0 0.0091518 
0 0 0 
0 0 4.02406e-05 
0 0 2.9631e-05 
0 0 5.17821e-05 
0 0 0.00527195 
0 0 7.97568e-06 
0 0 5.38746e-05 
0 0 3.1043e-05 
0 0 0.000124855 
0 0 5.707e-05 
0 0 0.0172179 
0 0 2.6613e-05 
0 0 1.08462e-05 
0 0 3.23704e-05 
0 0 0.00247639 
0 0 7.92696e-05 
0 0 4.3701e-05 
0 0 6.89698e-06 
0 0 3.60042e-05 
0 0 1.54894e-05 
0 0 2.70481e-05 
0 0 2.03054e-05 
0 0 3.78694e-05 
0 0 0.000871147 
0 0 5.03766e-05 
0 0 0.000605635 
0 0 0.00577745 
0 0 4.66229e-05 
0 0 0.00828469 
0 0 0.000493734 
0 0 1.22617e-05 
0 0 3.73057e-05 
0 0 1.673e-05 
0 0 0.000629649 
0 0 7.37463e-06 
0 0 0.00835342 
0 0 0.0113042 
0 0 2.18158e-05 
0 0 7.4693e-05 
0 0 0.000182993 
0 0 9.41524e-05 
0 0 9.22484e-06 
0 0 0.00142414 
0 0 0.00027839 
0 0 1.13397e-05 
0 0 0.00158886 
0 0 2.0236e-06 
0 0 3.98772e-06 
0 0 2.89506e-05 
0 0 1.71024e-05 
0 0 2.26168e-05 
0 0 0.00337562 
0 0 1.89282e-06 
0 0 3.30236e-05 
0 0 4.36665e-07 
0 0 0 
0 0 1.98952e-07 
</DataArray>
<DataArray type="Float32" Name="u" NumberOfComponents="3">
-0.202176 -0.184567 0 
0.351307 0.759698 0 
-0.317141 0.690408 0 
-0.785133 0.2986 0 
-0.616073 -0.434481 0 
0.00276385 -0.796148 0 
0.445429 -0.69499 0 
0.773261 0.00858755 0 
0.58068 0.619915 0 
1.25719 0.194433 0 
0.857021 0.905876 0 
-0.693463 0.205591 0 
0.939098 0.375671 0 
1.17337 0.271158 0 
0.776443 1.00353 0 
-0.0699656 1.21558 0 
0.332925 0.998965 0 
-0.97886 0.343682 0 
-0.835946 0.893661 0 
-0.940922 0.855171 0 
-1.22296 0.0238327 0 
0.413036 -0.460439 0 
0.18049 0.554063 0 
0.549846 -0.873524 0 
0.00173833 -1.23871 0 
0.0183582 -1.28027 0 
0.848027 -0.883079 0 
-0.952858 -0.393693 0 
-1.25242 -0.196055 0 
-1.00585 -0.727994 0 
0.956566 -0.196017 0 
-0.406911 1.0359 0 
-0.755591 -0.839207 0 
0.246471 -0.28384 0 
1.14058 -0.631686 0 
-0.246266 -1.33542 0 
-0.774007 -1.08521 0 
-1.20696 -0.639873 0 
-1.12344 -0.775404 0 
-0.298192 1.29092 0 
0.463247 1.28081 0 
0.294224 1.32958 0 
1.15182 -0.484547 0 
-0.836419 1.06745 0 
0.526743 -1.12479 0 
0.100009 -1.09628 0 
-1.25103 -0.432187 0 
-1.29529 0.427505 0 
-1.32964 0.304523 0 
1.31163 -0.259712 0 
0.735617 1.11603 0 
-0.97677 0.76912 0 
0.881727 -0.581507 0 
0.726603 -1.15598 0 
1.30766 -0.378783 0 
0.810883 0.808548 0 
1.28186 -0.471836 0 
1.33507 -0.283339 0 
-0.296965 1.21576 0 
-0.158546 -1.17854 0 
-0.76575 1.12652 0 
-0.752688 1.13402 0 
0.277183 0.324824 0 
-0.257177 -1.34213 0 
0.666403 -1.18823 0 
-0.314804 -1.3288 0 
1.12248 0.770346 0 
1.15614 0.722009 0 
0.896454 0.194441 0 
0.0971248 0.0353504 0 
1.12497 0.767403 0 
-0.224332 0.070475 0 
0.428838 -1.22862 0 
0.191373 -1.34968 0 
-0.447296 1.08776 0 
-0.334965 0.355364 0 
-1.27572 -0.430112 0 
1.06258 -0.516106 0 
-1.10634 0.618827 0 
0.623529 -1.19543 0 
-0.197096 1.07316 0 
1.30275 -0.352802 0 
1.34639 0.178211 0 
-0.295702 1.31584 0 
-0.727669 -0.655792 0 
-0.297083 -1.30378 0 
0.00984549 1.36194 0 
1.36527 0.00355049 0 
0.635405 1.18663 0 
-1.10268 0.801675 0 
0.216744 1.30543 0 
0.343689 -0.309927 0 
-0.844471 1.01907 0 
-0.865885 -0.346855 0 
-1.26322 -0.519064 0 
-1.11662 -0.731685 0 
1.00182 0.746471 0 
-1.31229 0.277646 0 
1.18618 -0.626165 0 
1.20548 -0.547527 0 
0.869712 0.993238 0 
0.761559 1.0567 0 
-1.14639 -0.715605 0 
1.00325 0.868778 0 
0.676618 -1.13442 0 
0.937904 -0.981115 0 
0.165568 1.34905 0 
0.215927 -1.34402 0 
-0.136993 -0.91858 0 
-0.623192 1.18288 0 
-0.206345 0.986492 0 
-1.29163 -0.171087 0 
-1.32008 -0.0628831 0 
-1.24512 0.474086 0 
-1.2528 0.422721 0 
-1.10242 0.614009 0 
0.227614 1.31169 0 
0.0968029 -1.32093 0 
0.16615 -1.29011 0 
-0.884364 -0.980757 0 
-0.821676 -1.00101 0 
-1.14271 0.698599 0 
1.13091 0.75054 0 
-1.11599 -0.726529 0 
0.882992 -1.03995 0 
1.08583 -0.828989 0 
0.19636 -1.26102 0 
0.560777 -1.16494 0 
1.02451 0.867593 0 
1.14438 0.654123 0 
1.27802 -0.334692 0 
0.665618 -1.14478 0 
-0.194772 1.31186 0 
-1.15311 -0.597423 0 
-0.380466 -1.29813 0 
-1.19803 0.453736 0 
-0.771075 1.08247 0 
1.32672 0.197421 0 
1.32871 -0.204609 0 
0.10072 1.262 0 
-1.34625 0.204353 0 
0.402244 1.22025 0 
0.584715 -1.11264 0 
1.25419 0.459314 0 
1.17761 0.502152 0 
0.795923 -1.09504 0 
0.0950209 1.32829 0 
-1.09496 -0.794322 0 
-0.36753 -0.91703 0 
-1.26153 -0.477306 0 
1.36001 0.0782275 0 
0.290279 1.31715 0 
-0.841176 -1.06345 0 
0.945534 0.945928 0 
1.23211 -0.370642 0 
1.20363 -0.323283 0 
-0.297411 -1.27835 0 
1.11318 0.761029 0 
0.532758 -1.24423 0 
1.24022 -0.392429 0 
-0.99683 0.894206 0 
-1.08348 0.803639 0 
1.01742 0.752368 0 
-1.33182 0.205453 0 
-0.747317 -1.13988 0 
-0.299776 1.29238 0 
0.181593 1.19957 0 
-0.305351 1.23893 0 
-0.828529 -0.945628 0 
-0.463661 -1.24531 0 
-0.65808 1.18593 0 
1.29501 0.426539 0 
-0.311268 -1.25144 0 
-1.12492 0.753625 0 
0.505446 1.22174 0 
-0.633687 1.08594 0 
-0.716461 1.02201 0 
-0.862426 0.558541 0 
0.863928 -0.978269 0 
0.833116 1.07714 0 
-0.713735 -1.16407 0 
-1.19103 0.435835 0 
0.363237 1.22414 0 
0.964151 -0.940818 0 
0.875728 0.834394 0 
0.771558 0.88495 0 
-1.22382 0.123849 0 
-1.21184 -0.0504593 0 
-0.893905 0.902139 0 
0.757625 -1.01943 0 
0.60024 -1.01489 0 
0.72755 -0.907198 0 
-1.16862 -0.0547504 0 
0.89565 -0.789511 0 
0.0388183 1.23971 0 
-0.0644345 -1.19915 0 
0.0333969 -1.15959 0 
-0.00341792 1.35639 0 
0.701059 -0.969289 0 
1.32696 -0.0541125 0 
1.23653 -0.159859 0 
1.23054 0.0290579 0 
0.0761806 -1.21438 0 
-1.14661 -0.384389 0 
-0.5376 -1.03677 0 
-0.337969 -1.12082 0 
1.15321 0.269649 0 
-1.10233 0.266351 0 
-1.1832 0.381357 0 
-1.33128 0.0735052 0 
-1.11842 -0.635048 0 
1.00241 -0.686603 0 
0.469377 1.08292 0 
-0.126613 1.16319 0 
-0.854443 -0.789101 0 
-0.646457 -1.0213 0 
-0.774585 0.920872 0 
1.33002 0.113465 0 
-1.07441 0.291025 0 
-0.339235 1.22057 0 
-0.790476 0.867083 0 
0.0236644 1.33035 0 
-0.328654 1.1796 0 
0.916659 -0.844268 0 
-0.590196 1.20757 0 
-0.32534 -1.21615 0 
-1.07105 -0.600771 0 
1.01783 0.554609 0 
1.20152 0.0986691 0 
0.0420463 -1.11925 0 
0.261511 -1.10743 0 
0.577027 0.343608 0 
1.15174 0.062929 0 
-1.05912 0.508506 0 
-1.01653 -0.550754 0 
0.280077 -1.33468 0 
0.840922 -0.960508 0 
0.680508 1.02862 0 
1.28611 0.051006 0 
1.07929 -0.80575 0 
1.13051 0.306558 0 
-1.12253 0.29937 0 
-1.35394 0.0406518 0 
-0.000947957 1.22919 0 
-1.16773 -0.137539 0 
-1.35642 0.0272019 0 
0.709006 0.943923 0 
-0.768069 -0.959172 0 
-0.950251 -0.589606 0 
1.02874 -0.585183 0 
-0.308019 -1.19659 0 
0.169711 -1.20934 0 
-1.10851 0.216947 0 
-0.296667 -1.11923 0 
-1.1013 0.418657 0 
0.713412 0.867501 0 
0.716213 -0.89861 0 
-0.839911 0.736277 0 
-1.1571 0.6416 0 
-0.701456 0.540305 0 
0.573463 -0.205804 0 
-1.20009 0.280321 0 
-0.277345 1.32665 0 
1.10113 -0.385734 0 
0.369098 -1.24626 0 
-1.02905 -0.700418 0 
0.161466 -1.16551 0 
0.369501 1.11352 0 
0.347858 1.02999 0 
0.988184 0.596394 0 
0.650556 0.973364 0 
1.2916 0.384137 0 
-0.0446674 1.19323 0 
0.215308 -1.33927 0 
-0.736112 -1.08341 0 
-0.463925 1.16483 0 
-1.08434 -0.30941 0 
0.396296 -1.10769 0 
-0.486563 1.04498 0 
-1.01645 0.203877 0 
1.11744 -0.627932 0 
1.14188 0.442371 0 
-0.503477 -1.02472 0 
0.924965 -0.282226 0 
1.25725 0.272099 0 
-0.32933 1.14198 0 
-1.20907 -0.261747 0 
-0.114801 1.1012 0 
-1.0442 0.0315901 0 
-0.78352 -0.759173 0 
-0.869579 0.651255 0 
1.25592 0.183165 0 
-0.656733 -0.961496 0 
-0.445075 -0.221523 0 
0.321988 -1.02577 0 
-0.996279 0.801463 0 
1.08412 0.35448 0 
0.917939 0.639218 0 
1.08912 -0.239183 0 
-1.33826 -0.260663 0 
-0.238714 -1.21014 0 
-0.927269 0.759661 0 
0.133243 1.10334 0 
-1.0221 0.673359 0 
0.959802 0.559518 0 
-1.04781 -0.362474 0 
-0.438744 0.974935 0 
-0.614786 0.90496 0 
-0.659555 -1.1163 0 
0.320737 -1.21401 0 
-1.27901 -0.334142 0 
-0.163337 1.07724 0 
-0.485457 -1.27247 0 
0.968774 -0.572307 0 
-1.05456 0.414178 0 
-1.05436 0.133302 0 
1.06987 -0.163056 0 
0.2978 1.09244 0 
0.622535 -0.881386 0 
-0.619946 1.21302 0 
-0.283523 1.10341 0 
-1.2056 0.479356 0 
0.325894 1.18956 0 
0.725352 -0.776463 0 
0.801822 -0.65232 0 
-0.89662 -0.605873 0 
1.22669 0.291632 0 
-1.0478 -0.127449 0 
1.19506 -0.0336301 0 
-0.173387 -1.2876 0 
-0.255893 -0.478894 0 
0.0254228 -1.35961 0 
1.08784 0.0778831 0 
-1.23297 0.581641 0 
-1.20944 -0.372402 0 
-0.852643 0.515157 0 
-1.18191 0.31768 0 
0.0285282 -1.35796 0 
0.826077 -0.568482 0 
0.939391 -0.449012 0 
-0.746046 -0.762328 0 
-0.61536 -0.821027 0 
-1.04204 -0.466684 0 
-0.227917 -1.01046 0 
-0.0776246 -1.02107 0 
0.991705 0.154023 0 
-0.955942 -0.679735 0 
-0.981319 -0.401444 0 
0.5805 1.12784 0 
-0.556766 0.847417 0 
-0.659494 0.749199 0 
-0.953694 0.67198 0 
-0.904814 -1.01591 0 
0.0603979 1.06226 0 
-0.893977 0.608457 0 
0.870438 0.587774 0 
0.761977 0.694561 0 
-0.521781 -0.840906 0 
-0.400907 -0.933012 0 
0.38048 -1.01165 0 
-0.761146 -0.894858 0 
1.30106 0.247257 0 
0.507981 0.965297 0 
-1.24536 0.251216 0 
-1.07619 -0.829369 0 
-0.181847 -1.04319 0 
-0.462092 -1.23426 0 
-0.520238 -1.17733 0 
0.675481 0.730342 0 
0.48407 -0.991337 0 
-0.834914 -0.570795 0 
-0.957287 -0.916467 0 
0.96098 0.452044 0 
1.10659 0.620812 0 
-0.730271 0.797464 0 
-0.244826 1.03003 0 
0.866099 0.663295 0 
-0.441474 1.15429 0 
0.748829 -0.85301 0 
0.0151409 1.04857 0 
0.239043 -1.32548 0 
-0.989389 0.930002 0 
0.472729 0.888508 0 
0.687552 1.17552 0 
0.908607 -0.412232 0 
0.958967 -0.276512 0 
1.13945 -0.153568 0 
1.08031 0.179892 0 
-0.640744 0.858369 0 
-0.862345 0.0579785 0 
-0.952143 0.483542 0 
-0.427055 1.25442 0 
-1.04221 -0.179031 0 
1.05429 -0.821145 0 
-0.925087 0.320002 0 
</DataArray>
<DataArray type="Float32" Name="err" NumberOfComponents="3">
0.33382 0.320236 0 
-0.472548 -1.00992 0 
0.444069 -0.961173 0 
1.04571 -0.387487 0 
0.861603 0.621118 0 
-0.00300822 1.09626 0 
-0.594562 0.941105 0 
-1.07401 -0.00270738 0 
-0.771838 -0.81518 0 
-0.923364 -0.141127 0 
-0.675727 -0.71139 0 
0.990622 -0.281905 0 
-1.08244 -0.427673 0 
-1.021 -0.233395 0 
-0.575779 -0.740923 0 
0.0568961 -1.02712 0 
-0.369507 -1.09674 0 
1.09603 -0.3771 0 
0.69802 -0.744362 0 
0.692576 -0.627929 0 
1.02186 -0.0137278 0 
-0.617018 0.701782 0 
-0.277552 -0.836315 0 
-0.613829 0.986617 0 
-0.00107298 0.997336 0 
-0.0128039 0.916772 0 
-0.702692 0.739368 0 
1.06942 0.452255 0 
0.9326 0.151995 0 
0.800804 0.587102 0 
-1.13811 0.24077 0 
0.413292 -1.05298 0 
0.745018 0.836991 0 
-0.398364 0.473688 0 
-0.748838 0.419325 0 
0.113052 0.619133 0 
0.440076 0.622847 0 
0.424099 0.228175 0 
0.364913 0.255058 0 
0.174278 -0.761524 0 
-0.175519 -0.481167 0 
-0.103165 -0.459461 0 
-0.900724 0.383829 0 
0.378905 -0.484647 0 
-0.417223 0.899892 0 
-0.101891 1.1338 0 
0.751524 0.264844 0 
0.496933 -0.162996 0 
0.454074 -0.102847 0 
-0.728129 0.1464 0 
-0.403711 -0.610003 0 
0.778534 -0.610564 0 
-0.960878 0.642381 0 
-0.236583 0.380514 0 
-0.56732 0.16635 0 
-0.787427 -0.780775 0 
-0.471627 0.17562 0 
-0.442313 0.0950585 0 
0.229476 -0.94589 0 
0.141199 1.05642 0 
0.29381 -0.433853 0 
0.246395 -0.37297 0 
-0.44597 -0.509376 0 
0.0870092 0.459545 0 
-0.284442 0.51235 0 
0.124307 0.530299 0 
-0.460912 -0.317023 0 
-0.392443 -0.246155 0 
-1.12697 -0.237561 0 
-0.164029 -0.0450126 0 
-0.361811 -0.247879 0 
0.372812 -0.102395 0 
-0.282515 0.817445 0 
-0.0573621 0.408578 0 
0.410252 -0.999061 0 
0.527221 -0.547621 0 
0.662404 0.227829 0 
-0.964188 0.474565 0 
0.824818 -0.458492 0 
-0.316686 0.613172 0 
0.20499 -1.1244 0 
-0.656043 0.179967 0 
-0.609769 -0.0806056 0 
0.144666 -0.650726 0 
0.859388 0.785883 0 
0.164016 0.726249 0 
-0.00505992 -0.490833 0 
-0.481788 -0.000968112 0 
-0.323407 -0.600775 0 
0.406871 -0.296078 0 
-0.130976 -0.77533 0 
-0.543183 0.504107 0 
0.503481 -0.607849 0 
1.06933 0.439905 0 
0.481307 0.201243 0 
0.628104 0.416847 0 
-0.784628 -0.582746 0 
0.706137 -0.146768 0 
-0.259317 0.138672 0 
-0.220554 0.101578 0 
-0.157762 -0.180682 0 
-0.117945 -0.163726 0 
0.568574 0.359568 0 
-0.585424 -0.506275 0 
-0.409737 0.693695 0 
-0.434305 0.458931 0 
-0.0528648 -0.41942 0 
-0.0618448 0.388899 0 
0.169637 1.14567 0 
0.135932 -0.260141 0 
0.237133 -1.13894 0 
0.198457 0.0275689 0 
0.240063 0.0126506 0 
0.255403 -0.0973345 0 
0.232086 -0.0783573 0 
0.124027 -0.0697359 0 
-0.0477139 -0.269122 0 
-0.0174694 0.239897 0 
-0.0241573 0.189661 0 
0.154748 0.173674 0 
0.114943 0.141837 0 
0.254597 -0.156206 0 
-0.323106 -0.215635 0 
0.219531 0.145006 0 
-0.360387 0.428849 0 
-0.4052 0.312694 0 
-0.0233418 0.151897 0 
-0.0764954 0.161389 0 
-0.538481 -0.455743 0 
-0.201472 -0.11661 0 
-0.228448 0.0606342 0 
-0.119953 0.209149 0 
0.0370947 -0.256659 0 
0.168859 0.0891509 0 
0.0936624 0.323912 0 
0.156245 -0.0595014 0 
0.154315 -0.218216 0 
-0.712293 -0.105546 0 
-0.303677 0.0473374 0 
-0.0123511 -0.146134 0 
0.416541 -0.0619689 0 
-0.0545277 -0.163446 0 
-0.0600594 0.116359 0 
-0.262397 -0.0973605 0 
-0.149458 -0.0650751 0 
-0.201691 0.280817 0 
-0.0558091 -0.751015 0 
0.275524 0.202447 0 
0.430008 1.0836 0 
0.304137 0.117411 0 
-0.419999 -0.0242554 0 
-0.0749367 -0.334702 0 
0.219458 0.280436 0 
-0.204947 -0.205776 0 
-0.163735 0.0500197 0 
-0.117263 0.0320533 0 
0.0474753 0.207969 0 
-0.274941 -0.189241 0 
-0.133757 0.316094 0 
-0.824915 0.264553 0 
0.222497 -0.200601 0 
0.540862 -0.4008 0 
-0.115036 -0.0863856 0 
0.681792 -0.102489 0 
0.31746 0.488894 0 
0.0579442 -0.254226 0 
-0.157662 -1.02266 0 
0.037684 -0.156195 0 
0.0862213 0.0997969 0 
0.086647 0.236197 0 
0.189628 -0.343878 0 
-0.428055 -0.141946 0 
0.0408594 0.167793 0 
0.531483 -0.355642 0 
-0.0948224 -0.227411 0 
0.0684414 -0.118804 0 
0.0722721 -0.10439 0 
0.977214 -0.626295 0 
-0.131734 0.15144 0 
-0.278584 -0.359702 0 
0.284426 0.468417 0 
0.140519 -0.0517484 0 
-0.0462911 -0.153836 0 
-0.22424 0.221558 0 
-0.0648057 -0.0627174 0 
-0.0437575 -0.0508413 0 
0.107928 -0.0106827 0 
0.0938353 0.00447762 0 
0.107035 -0.109108 0 
-0.0866408 0.118625 0 
-0.0343988 0.0596438 0 
-0.0371475 0.0476477 0 
0.066089 0.00355599 0 
-0.0582268 0.0526484 0 
-0.00430436 -0.11793 0 
0.00412296 0.0817416 0 
-0.00174065 0.0582034 0 
-0.000314027 -0.394863 0 
-0.0458833 0.0649702 0 
-0.254642 0.0104233 0 
-0.121225 0.0158543 0 
-0.10725 -0.00280558 0 
-0.00583061 0.0931267 0 
0.0854854 0.0296956 0 
0.0282619 0.0559483 0 
0.0178371 0.0613412 0 
-0.0710897 -0.0174142 0 
0.048051 -0.011818 0 
0.115385 -0.0374705 0 
0.272813 -0.0140639 0 
0.147642 0.0853768 0 
-0.0765905 0.0536892 0 
-0.0284366 -0.0650114 0 
0.00665756 -0.0655759 0 
0.0444148 0.0417783 0 
0.0464225 0.0747449 0 
0.0559595 -0.0675416 0 
-0.274287 -0.023827 0 
1.09291 -0.289113 0 
0.039008 -0.143204 0 
0.0457137 -0.0510313 0 
-0.00586123 -0.271569 0 
0.027277 -0.100313 0 
-0.0878841 0.0825653 0 
0.304519 -0.625467 0 
0.0334966 0.1283 0 
0.0908994 0.0521288 0 
-0.0514763 -0.0292252 0 
-0.0868637 -0.00755951 0 
-0.00158937 0.0412554 0 
-0.0108064 0.0470442 0 
-0.848595 -0.495272 0 
-0.0566475 -0.00340573 0 
0.0624914 -0.0305459 0 
0.0507685 0.0283346 0 
-0.115916 0.557965 0 
-0.10146 0.117887 0 
-0.0607812 -0.0919464 0 
-0.172365 -0.00716028 0 
-0.251198 0.189903 0 
-0.0632104 -0.0179911 0 
1.05865 -0.276195 0 
0.360734 -0.00935805 0 
-0.000503813 -0.10759 0 
0.0687585 0.00872499 0 
0.630982 -0.00973063 0 
-0.0423754 -0.056807 0 
0.0644421 0.0817339 0 
0.0354741 0.0226821 0 
-0.0624965 0.0365158 0 
0.0265108 0.1059 0 
-0.0132541 0.0959007 0 
0.0466959 -0.00926677 0 
0.0141399 0.0555838 0 
0.06664 -0.0257543 0 
-0.0272778 -0.0337029 0 
-0.684379 0.86795 0 
0.0317187 -0.0284815 0 
0.217182 -0.120966 0 
0.904994 -0.688968 0 
-0.862493 0.321573 0 
0.982564 -0.224485 0 
0.0778879 -0.378523 0 
-0.0594929 0.0214121 0 
-0.0531547 0.182097 0 
0.0985672 0.0682959 0 
-0.00902123 0.0663191 0 
-0.0214034 -0.0634965 0 
-0.010281 -0.0298576 0 
-0.0480687 -0.0301853 0 
-0.0362048 -0.0543541 0 
-0.656973 -0.195555 0 
0.00250156 -0.0803806 0 